
     Program PWSCF v.6.6 starts on  1Apr2021 at 23:34:40 

     This program is part of the open-source Quantum ESPRESSO suite
     for quantum simulation of materials; please cite
         "P. Giannozzi et al., J. Phys.:Condens. Matter 21 395502 (2009);
         "P. Giannozzi et al., J. Phys.:Condens. Matter 29 465901 (2017);
          URL http://www.quantum-espresso.org", 
     in publications or presentations arising from this work. More details at
     http://www.quantum-espresso.org/quote

     Parallel version (MPI), running on     1 processors

     MPI processes distributed on     1 nodes
     Fft bands division:     nmany     =       1
     Waiting for input...
     Reading input from standard input
Warning: card &CELL ignored
Warning: card   CELL_DYNAMICS='BFGS', ignored
Warning: card   CELL_DOFREE='ALL', ignored
Warning: card / ignored

     Current dimensions of program PWSCF are:
     Max number of different atomic species (ntypx) = 10
     Max number of k-points (npk) =  40000
     Max angular momentum in pseudopotentials (lmaxx) =  3

     File /home/jesus/Documentos/Nanociencia_DFT/silicano.update deleted, as requested

     File /home/jesus/Documentos/Nanociencia_DFT/silicano.bfgs deleted, as requested

     Subspace diagonalization in iterative solution of the eigenvalue problem:
     a serial algorithm will be used

     Message from routine setup:
     using ibrav=0 with symmetry is DISCOURAGED, use correct ibrav instead
 
     G-vector sticks info
     --------------------
     sticks:   dense  smooth     PW     G-vecs:    dense   smooth      PW
     Sum         805     535    163                94437    51235    9135
 


     bravais-lattice index     =            0
     lattice parameter (alat)  =       7.4455  a.u.
     unit-cell volume          =    1838.6714 (a.u.)^3
     number of atoms/cell      =            4
     number of atomic types    =            2
     number of electrons       =        10.00
     number of Kohn-Sham states=            9
     kinetic-energy cutoff     =      35.0000  Ry
     charge density cutoff     =     210.0000  Ry
     convergence threshold     =      1.0E-06
     mixing beta               =       0.7000
     number of iterations used =            8  plain     mixing
     Exchange-correlation= PBE
                           (   1   4   3   4   0   0   0)
     nstep                     =            1


     celldm(1)=   7.445521  celldm(2)=   0.000000  celldm(3)=   0.000000
     celldm(4)=   0.000000  celldm(5)=   0.000000  celldm(6)=   0.000000

     crystal axes: (cart. coord. in units of alat)
               a(1) = (   0.500000   0.866000   0.000000 )  
               a(2) = (  -0.500000   0.866000   0.000000 )  
               a(3) = (   0.000000   0.000000   5.144000 )  

     reciprocal axes: (cart. coord. in units 2 pi/alat)
               b(1) = (  1.000000  0.577367  0.000000 )  
               b(2) = ( -1.000000  0.577367  0.000000 )  
               b(3) = (  0.000000  0.000000  0.194401 )  


     PseudoPot. # 1 for Si read from file:
     /home/jesus/Nanociencia_DFT/pseudopotenciales/Si.pbe-n-rrkjus_psl.1.0.0.UPF
     MD5 check sum: fa25574f73a70a4139f2adfbefec430c
     Pseudo is Ultrasoft + core correction, Zval =  4.0
     Generated using "atomic" code by A. Dal Corso v.6.3
     Using radial grid of 1141 points,  6 beta functions with: 
                l(1) =   0
                l(2) =   0
                l(3) =   1
                l(4) =   1
                l(5) =   2
                l(6) =   2
     Q(r) pseudized with 0 coefficients 


     PseudoPot. # 2 for H  read from file:
     /home/jesus/Nanociencia_DFT/pseudopotenciales/H.pbe-rrkjus_psl.1.0.0.UPF
     MD5 check sum: 3f4114867bd07edc7f1424d066fc1888
     Pseudo is Ultrasoft, Zval =  1.0
     Generated using "atomic" code by A. Dal Corso v.6.3MaX
     Using radial grid of  929 points,  2 beta functions with: 
                l(1) =   0
                l(2) =   0
     Q(r) pseudized with 0 coefficients 


     atomic species   valence    mass     pseudopotential
        Si             4.00    28.08550     Si( 1.00)
        H              1.00     1.00800     H ( 1.00)

      2 Sym. Ops. (no inversion) found



   Cartesian axes

     site n.     atom                  positions (alat units)
         1           H   tau(   1) = (   0.0000000   0.0000000   0.0000000  )
         2           Si  tau(   2) = (   0.0000000   0.0000000   0.3858000  )
         3           Si  tau(   3) = (   0.0000000   0.5767560   0.5709840  )
         4           H   tau(   4) = (   0.0000000   0.5767560   0.9567840  )

     number of k points=    21  Methfessel-Paxton smearing, width (Ry)=  0.0100
                       cart. coord. in units 2pi/alat
        k(    1) = (   0.0000000   0.0000000   0.0000000), wk =   0.0312500
        k(    2) = (  -0.1250000   0.0721709   0.0000000), wk =   0.1250000
        k(    3) = (  -0.2500000   0.1443418   0.0000000), wk =   0.1250000
        k(    4) = (  -0.3750000   0.2165127   0.0000000), wk =   0.1250000
        k(    5) = (   0.5000000  -0.2886836   0.0000000), wk =   0.0625000
        k(    6) = (   0.0000000   0.1443418   0.0000000), wk =   0.0625000
        k(    7) = (  -0.1250000   0.2165127   0.0000000), wk =   0.1250000
        k(    8) = (  -0.2500000   0.2886836   0.0000000), wk =   0.1250000
        k(    9) = (   0.6250000  -0.2165127   0.0000000), wk =   0.1250000
        k(   10) = (   0.5000000  -0.1443418   0.0000000), wk =   0.1250000
        k(   11) = (   0.3750000  -0.0721709   0.0000000), wk =   0.1250000
        k(   12) = (   0.2500000   0.0000000   0.0000000), wk =   0.0625000
        k(   13) = (   0.0000000   0.2886836   0.0000000), wk =   0.0625000
        k(   14) = (  -0.1250000   0.3608545   0.0000000), wk =   0.1250000
        k(   15) = (   0.7500000  -0.1443418   0.0000000), wk =   0.1250000
        k(   16) = (   0.6250000  -0.0721709   0.0000000), wk =   0.1250000
        k(   17) = (   0.5000000   0.0000000   0.0000000), wk =   0.0625000
        k(   18) = (   0.0000000   0.4330254   0.0000000), wk =   0.0625000
        k(   19) = (   0.8750000  -0.0721709   0.0000000), wk =   0.1250000
        k(   20) = (   0.7500000   0.0000000   0.0000000), wk =   0.0625000
        k(   21) = (   0.0000000  -0.5773672   0.0000000), wk =   0.0312500

     Dense  grid:    94437 G-vectors     FFT dimensions: (  36,  36, 180)

     Smooth grid:    51235 G-vectors     FFT dimensions: (  30,  30, 150)

     Estimated max dynamical RAM per process >     358.03 MB

     Initial potential from superposition of free atoms

     starting charge    9.99886, renormalised to   10.00000

     negative rho (up, down):  1.046E-04 0.000E+00
     Starting wfcs are   10 randomized atomic wfcs

     total cpu time spent up to now is        3.1 secs

     Self-consistent Calculation

     iteration #  1     ecut=    35.00 Ry     beta= 0.70
     Davidson diagonalization with overlap
     ethr =  1.00E-02,  avg # of iterations =  3.0

     negative rho (up, down):  8.489E-05 0.000E+00

     total cpu time spent up to now is        7.3 secs

     total energy              =     -25.14995041 Ry
     estimated scf accuracy    <       0.15720873 Ry

     iteration #  2     ecut=    35.00 Ry     beta= 0.70
     Davidson diagonalization with overlap
     ethr =  1.57E-03,  avg # of iterations =  1.4

     negative rho (up, down):  9.880E-05 0.000E+00

     total cpu time spent up to now is       10.5 secs

     total energy              =     -25.15926775 Ry
     estimated scf accuracy    <       0.00481456 Ry

     iteration #  3     ecut=    35.00 Ry     beta= 0.70
     Davidson diagonalization with overlap
     c_bands:  1 eigenvalues not converged
     c_bands:  1 eigenvalues not converged
     ethr =  4.81E-05,  avg # of iterations =  8.7

     negative rho (up, down):  9.988E-05 0.000E+00

     total cpu time spent up to now is       15.8 secs

     total energy              =     -25.16011208 Ry
     estimated scf accuracy    <       0.00031290 Ry

     iteration #  4     ecut=    35.00 Ry     beta= 0.70
     Davidson diagonalization with overlap
     ethr =  3.13E-06,  avg # of iterations =  5.0

     negative rho (up, down):  1.034E-04 0.000E+00

     total cpu time spent up to now is       19.9 secs

     total energy              =     -25.16016509 Ry
     estimated scf accuracy    <       0.00002655 Ry

     iteration #  5     ecut=    35.00 Ry     beta= 0.70
     Davidson diagonalization with overlap
     ethr =  2.66E-07,  avg # of iterations =  1.6

     negative rho (up, down):  1.034E-04 0.000E+00

     total cpu time spent up to now is       23.2 secs

     total energy              =     -25.16016811 Ry
     estimated scf accuracy    <       0.00000107 Ry

     iteration #  6     ecut=    35.00 Ry     beta= 0.70
     Davidson diagonalization with overlap
     ethr =  1.07E-08,  avg # of iterations =  2.1

     negative rho (up, down):  1.035E-04 0.000E+00

     total cpu time spent up to now is       26.8 secs

     End of self-consistent calculation

          k = 0.0000 0.0000 0.0000 (  6355 PWs)   bands (ev):

   -13.5946  -9.1159  -5.9099  -3.4879  -3.4726  -1.2690   0.3989   0.4156
     0.6666

          k =-0.1250 0.0722 0.0000 (  6358 PWs)   bands (ev):

   -13.4302  -9.0848  -5.9105  -4.6115  -3.7782  -0.6281   0.4556   0.9355
     0.9910

          k =-0.2500 0.1443 0.0000 (  6410 PWs)   bands (ev):

   -12.9509  -9.1261  -6.1548  -5.8765  -4.3061  -0.9313   0.9830   1.2630
     2.1928

          k =-0.3750 0.2165 0.0000 (  6434 PWs)   bands (ev):

   -12.2251  -9.6337  -6.8489  -6.0251  -4.7022  -1.2299   0.5670   1.2001
     2.8157

          k = 0.5000-0.2887 0.0000 (  6432 PWs)   bands (ev):

   -11.6765 -10.2072  -6.9295  -6.1204  -4.8432  -1.3017   0.2197   1.1892
     2.8490

          k = 0.0000 0.1443 0.0000 (  6358 PWs)   bands (ev):

   -13.4301  -9.0849  -5.9108  -4.6193  -3.7689  -0.6255   0.4600   0.9359
     0.9808

          k =-0.1250 0.2165 0.0000 (  6413 PWs)   bands (ev):

   -13.1073  -9.0844  -5.9369  -5.6460  -4.4064   0.0396   0.3060   1.1293
     1.5590

          k =-0.2500 0.2887 0.0000 (  6436 PWs)   bands (ev):

   -12.4937  -9.3554  -6.5517  -6.0233  -5.0781  -0.1867   1.0017   1.1571
     1.9035

          k = 0.6250-0.2165 0.0000 (  6453 PWs)   bands (ev):

   -11.7390 -10.0584  -6.8425  -6.1302  -5.4237  -0.2786   0.4411   1.2024
     2.1224

          k = 0.5000-0.1443 0.0000 (  6453 PWs)   bands (ev):

   -11.7400 -10.0567  -6.8428  -6.1289  -5.4257  -0.2776   0.4404   1.2028
     2.1218

          k = 0.3750-0.0722 0.0000 (  6435 PWs)   bands (ev):

   -12.4947  -9.3534  -6.5498  -6.0215  -5.0838  -0.1852   1.0029   1.1558
     1.9011

          k = 0.2500 0.0000 0.0000 (  6413 PWs)   bands (ev):

   -13.1079  -9.0836  -5.9362  -5.6385  -4.4165   0.0447   0.2966   1.1312
     1.5582

          k = 0.0000 0.2887 0.0000 (  6412 PWs)   bands (ev):

   -12.9501  -9.1275  -6.1597  -5.8774  -4.2993  -0.9250   0.9829   1.2625
     2.1870

          k =-0.1250 0.3609 0.0000 (  6437 PWs)   bands (ev):

   -12.4928  -9.3572  -6.5542  -6.0231  -5.0753  -0.1805   1.0017   1.1563
     1.9014

          k = 0.7500-0.1443 0.0000 (  6471 PWs)   bands (ev):

   -11.7926  -9.9123  -6.5765  -6.3581  -5.8599   0.6784   0.9173   1.6805
     2.0359

          k = 0.6250-0.0722 0.0000 (  6427 PWs)   bands (ev):

   -11.1859 -10.4839  -6.6785  -6.2622  -6.2404   0.5524   1.2616   1.3382
     1.8480

          k = 0.5000 0.0000 0.0000 (  6471 PWs)   bands (ev):

   -11.7955  -9.9071  -6.5748  -6.3572  -5.8649   0.6799   0.9165   1.6777
     2.0279

          k = 0.0000 0.4330 0.0000 (  6434 PWs)   bands (ev):

   -12.2222  -9.6394  -6.8504  -6.0269  -4.6966  -1.2237   0.5681   1.1981
     2.8149

          k = 0.8750-0.0722 0.0000 (  6453 PWs)   bands (ev):

   -11.7345 -10.0657  -6.8428  -6.1318  -5.4195  -0.2724   0.4425   1.2000
     2.1226

          k = 0.7500 0.0000 0.0000 (  6427 PWs)   bands (ev):

   -11.1789 -10.4928  -6.6792  -6.2581  -6.2423   0.5531   1.2600   1.3390
     1.8536

          k = 0.0000-0.5774 0.0000 (  6432 PWs)   bands (ev):

   -11.6691 -10.2182  -6.9287  -6.1233  -4.8380  -1.2955   0.2215   1.1861
     2.8492

     the Fermi energy is    -3.3650 ev

!    total energy              =     -25.16016839 Ry
     estimated scf accuracy    <       0.00000006 Ry
     smearing contrib. (-TS)   =       0.00001871 Ry
     internal energy E=F+TS    =     -25.16018710 Ry

     The total energy is F=E-TS. E is the sum of the following terms:
     one-electron contribution =    -109.77998080 Ry
     hartree contribution      =      56.17038661 Ry
     xc contribution           =     -13.59378396 Ry
     ewald contribution        =      42.04319104 Ry

     convergence has been achieved in   6 iterations

     negative rho (up, down):  1.035E-04 0.000E+00

     Forces acting on atoms (cartesian axes, Ry/au):

     atom    1 type  2   force =     0.00000000   -0.00000893    0.01082569
     atom    2 type  1   force =     0.00000000   -0.00094311   -0.00079310
     atom    3 type  1   force =     0.00000000    0.00094515    0.00102799
     atom    4 type  2   force =     0.00000000    0.00000689   -0.01106057

     Total force =     0.015588     Total SCF correction =     0.000097

     BFGS Geometry Optimization

     number of scf cycles    =   1
     number of bfgs steps    =   0

     energy   new            =     -25.1601683901 Ry

     new trust radius        =       0.0110605715 bohr

     The maximum number of steps has been reached.

     End of BFGS Geometry Optimization

ATOMIC_POSITIONS (crystal)
H            -0.0000006926       -0.0000006926        0.0002826567
Si           -0.0000731337       -0.0000731337        0.0749792922
Si            0.3330732918        0.3330732918        0.1110268406
H             0.3330005345        0.3330005345        0.1857112105



     Writing output data file /home/jesus/Documentos/Nanociencia_DFT/silicano.save/
     NEW-OLD atomic charge density approx. for the potential

     negative rho (up, down):  1.040E-04 0.000E+00

     Writing output data file /home/jesus/Documentos/Nanociencia_DFT/silicano.save/
 
     init_run     :      2.07s CPU      2.26s WALL (       1 calls)
     electrons    :     22.17s CPU     23.67s WALL (       1 calls)
     update_pot   :      0.56s CPU      0.56s WALL (       1 calls)
     forces       :      0.91s CPU      1.02s WALL (       1 calls)

     Called by init_run:
     wfcinit      :      0.92s CPU      0.95s WALL (       1 calls)
     potinit      :      0.28s CPU      0.30s WALL (       1 calls)
     hinit0       :      0.56s CPU      0.59s WALL (       1 calls)

     Called by electrons:
     c_bands      :     16.06s CPU     16.10s WALL (       6 calls)
     sum_band     :      4.14s CPU      4.79s WALL (       6 calls)
     v_of_rho     :      0.80s CPU      0.84s WALL (       8 calls)
     newd         :      1.70s CPU      2.69s WALL (       8 calls)
     mix_rho      :      0.08s CPU      0.08s WALL (       6 calls)

     Called by c_bands:
     init_us_2    :      0.63s CPU      0.64s WALL (     294 calls)
     cegterg      :     13.60s CPU     13.63s WALL (     126 calls)

     Called by *egterg:
     cdiaghg      :      0.08s CPU      0.08s WALL (     587 calls)
     h_psi        :     12.75s CPU     12.79s WALL (     608 calls)
     s_psi        :      0.44s CPU      0.44s WALL (     608 calls)
     g_psi        :      0.05s CPU      0.05s WALL (     461 calls)

     Called by h_psi:
     h_psi:calbec :      0.49s CPU      0.49s WALL (     608 calls)
     vloc_psi     :     11.74s CPU     11.78s WALL (     608 calls)
     add_vuspsi   :      0.46s CPU      0.46s WALL (     608 calls)

     General routines
     calbec       :      0.70s CPU      0.71s WALL (     818 calls)
     fft          :      0.33s CPU      0.35s WALL (     114 calls)
     ffts         :      0.02s CPU      0.02s WALL (      14 calls)
     fftw         :     12.06s CPU     12.10s WALL (    8242 calls)
     interpolate  :      0.05s CPU      0.05s WALL (       8 calls)
     davcio       :      0.00s CPU      0.08s WALL (      21 calls)
 
     Parallel routines
 
     PWSCF        :     26.71s CPU     28.83s WALL

 
   This run was terminated on:  23:35: 9   1Apr2021            

=------------------------------------------------------------------------------=
   JOB DONE.
=------------------------------------------------------------------------------=
