
     Program PWSCF v.6.6 starts on  1Apr2021 at 23:50:56 

     This program is part of the open-source Quantum ESPRESSO suite
     for quantum simulation of materials; please cite
         "P. Giannozzi et al., J. Phys.:Condens. Matter 21 395502 (2009);
         "P. Giannozzi et al., J. Phys.:Condens. Matter 29 465901 (2017);
          URL http://www.quantum-espresso.org", 
     in publications or presentations arising from this work. More details at
     http://www.quantum-espresso.org/quote

     Parallel version (MPI), running on     1 processors

     MPI processes distributed on     1 nodes
     Fft bands division:     nmany     =       1
     Waiting for input...
     Reading input from standard input
Warning: card &CELL ignored
Warning: card   CELL_DYNAMICS='BFGS', ignored
Warning: card   CELL_DOFREE='ALL', ignored
Warning: card / ignored

     Current dimensions of program PWSCF are:
     Max number of different atomic species (ntypx) = 10
     Max number of k-points (npk) =  40000
     Max angular momentum in pseudopotentials (lmaxx) =  3

     File /home/jesus/Documentos/Nanociencia_DFT/silicano.update deleted, as requested

     File /home/jesus/Documentos/Nanociencia_DFT/silicano.bfgs deleted, as requested

     Subspace diagonalization in iterative solution of the eigenvalue problem:
     a serial algorithm will be used

     Message from routine setup:
     using ibrav=0 with symmetry is DISCOURAGED, use correct ibrav instead
 
     G-vector sticks info
     --------------------
     sticks:   dense  smooth     PW     G-vecs:    dense   smooth      PW
     Sum         769     511    163                90451    49277    8823
 


     bravais-lattice index     =            0
     lattice parameter (alat)  =       7.3435  a.u.
     unit-cell volume          =    1764.1026 (a.u.)^3
     number of atoms/cell      =            4
     number of atomic types    =            2
     number of electrons       =        10.00
     number of Kohn-Sham states=            9
     kinetic-energy cutoff     =      35.0000  Ry
     charge density cutoff     =     210.0000  Ry
     convergence threshold     =      1.0E-06
     mixing beta               =       0.7000
     number of iterations used =            8  plain     mixing
     Exchange-correlation= PBE
                           (   1   4   3   4   0   0   0)
     nstep                     =            1


     celldm(1)=   7.343476  celldm(2)=   0.000000  celldm(3)=   0.000000
     celldm(4)=   0.000000  celldm(5)=   0.000000  celldm(6)=   0.000000

     crystal axes: (cart. coord. in units of alat)
               a(1) = (   0.500000   0.866000   0.000000 )  
               a(2) = (  -0.500000   0.866000   0.000000 )  
               a(3) = (   0.000000   0.000000   5.144000 )  

     reciprocal axes: (cart. coord. in units 2 pi/alat)
               b(1) = (  1.000000  0.577367  0.000000 )  
               b(2) = ( -1.000000  0.577367  0.000000 )  
               b(3) = (  0.000000  0.000000  0.194401 )  


     PseudoPot. # 1 for Si read from file:
     /home/jesus/Nanociencia_DFT/pseudopotenciales/Si.pbe-n-rrkjus_psl.1.0.0.UPF
     MD5 check sum: fa25574f73a70a4139f2adfbefec430c
     Pseudo is Ultrasoft + core correction, Zval =  4.0
     Generated using "atomic" code by A. Dal Corso v.6.3
     Using radial grid of 1141 points,  6 beta functions with: 
                l(1) =   0
                l(2) =   0
                l(3) =   1
                l(4) =   1
                l(5) =   2
                l(6) =   2
     Q(r) pseudized with 0 coefficients 


     PseudoPot. # 2 for H  read from file:
     /home/jesus/Nanociencia_DFT/pseudopotenciales/H.pbe-rrkjus_psl.1.0.0.UPF
     MD5 check sum: 3f4114867bd07edc7f1424d066fc1888
     Pseudo is Ultrasoft, Zval =  1.0
     Generated using "atomic" code by A. Dal Corso v.6.3MaX
     Using radial grid of  929 points,  2 beta functions with: 
                l(1) =   0
                l(2) =   0
     Q(r) pseudized with 0 coefficients 


     atomic species   valence    mass     pseudopotential
        Si             4.00    28.08550     Si( 1.00)
        H              1.00     1.00800     H ( 1.00)

      2 Sym. Ops. (no inversion) found



   Cartesian axes

     site n.     atom                  positions (alat units)
         1           H   tau(   1) = (   0.0000000   0.0000000   0.0000000  )
         2           Si  tau(   2) = (   0.0000000   0.0000000   0.3858000  )
         3           Si  tau(   3) = (   0.0000000   0.5767560   0.5709840  )
         4           H   tau(   4) = (   0.0000000   0.5767560   0.9567840  )

     number of k points=    21  Methfessel-Paxton smearing, width (Ry)=  0.0100
                       cart. coord. in units 2pi/alat
        k(    1) = (   0.0000000   0.0000000   0.0000000), wk =   0.0312500
        k(    2) = (  -0.1250000   0.0721709   0.0000000), wk =   0.1250000
        k(    3) = (  -0.2500000   0.1443418   0.0000000), wk =   0.1250000
        k(    4) = (  -0.3750000   0.2165127   0.0000000), wk =   0.1250000
        k(    5) = (   0.5000000  -0.2886836   0.0000000), wk =   0.0625000
        k(    6) = (   0.0000000   0.1443418   0.0000000), wk =   0.0625000
        k(    7) = (  -0.1250000   0.2165127   0.0000000), wk =   0.1250000
        k(    8) = (  -0.2500000   0.2886836   0.0000000), wk =   0.1250000
        k(    9) = (   0.6250000  -0.2165127   0.0000000), wk =   0.1250000
        k(   10) = (   0.5000000  -0.1443418   0.0000000), wk =   0.1250000
        k(   11) = (   0.3750000  -0.0721709   0.0000000), wk =   0.1250000
        k(   12) = (   0.2500000   0.0000000   0.0000000), wk =   0.0625000
        k(   13) = (   0.0000000   0.2886836   0.0000000), wk =   0.0625000
        k(   14) = (  -0.1250000   0.3608545   0.0000000), wk =   0.1250000
        k(   15) = (   0.7500000  -0.1443418   0.0000000), wk =   0.1250000
        k(   16) = (   0.6250000  -0.0721709   0.0000000), wk =   0.1250000
        k(   17) = (   0.5000000   0.0000000   0.0000000), wk =   0.0625000
        k(   18) = (   0.0000000   0.4330254   0.0000000), wk =   0.0625000
        k(   19) = (   0.8750000  -0.0721709   0.0000000), wk =   0.1250000
        k(   20) = (   0.7500000   0.0000000   0.0000000), wk =   0.0625000
        k(   21) = (   0.0000000  -0.5773672   0.0000000), wk =   0.0312500

     Dense  grid:    90451 G-vectors     FFT dimensions: (  36,  36, 180)

     Smooth grid:    49277 G-vectors     FFT dimensions: (  27,  27, 144)

     Estimated max dynamical RAM per process >     343.73 MB

     Initial potential from superposition of free atoms

     starting charge    9.99886, renormalised to   10.00000

     negative rho (up, down):  1.009E-04 0.000E+00
     Starting wfcs are   10 randomized atomic wfcs

     total cpu time spent up to now is        2.9 secs

     Self-consistent Calculation

     iteration #  1     ecut=    35.00 Ry     beta= 0.70
     Davidson diagonalization with overlap
     ethr =  1.00E-02,  avg # of iterations =  3.5

     negative rho (up, down):  8.175E-05 0.000E+00

     total cpu time spent up to now is        6.7 secs

     total energy              =     -25.15075450 Ry
     estimated scf accuracy    <       0.16591678 Ry

     iteration #  2     ecut=    35.00 Ry     beta= 0.70
     Davidson diagonalization with overlap
     ethr =  1.66E-03,  avg # of iterations =  1.3

     negative rho (up, down):  9.751E-05 0.000E+00

     total cpu time spent up to now is        9.6 secs

     total energy              =     -25.16063060 Ry
     estimated scf accuracy    <       0.00463586 Ry

     iteration #  3     ecut=    35.00 Ry     beta= 0.70
     Davidson diagonalization with overlap
     c_bands:  1 eigenvalues not converged
     ethr =  4.64E-05,  avg # of iterations =  8.1

     negative rho (up, down):  9.978E-05 0.000E+00

     total cpu time spent up to now is       14.3 secs

     total energy              =     -25.16140985 Ry
     estimated scf accuracy    <       0.00025634 Ry

     iteration #  4     ecut=    35.00 Ry     beta= 0.70
     Davidson diagonalization with overlap
     c_bands:  1 eigenvalues not converged
     ethr =  2.56E-06,  avg # of iterations =  5.9

     negative rho (up, down):  1.030E-04 0.000E+00

     total cpu time spent up to now is       18.1 secs

     total energy              =     -25.16145368 Ry
     estimated scf accuracy    <       0.00002294 Ry

     iteration #  5     ecut=    35.00 Ry     beta= 0.70
     Davidson diagonalization with overlap
     ethr =  2.29E-07,  avg # of iterations =  1.7

     negative rho (up, down):  1.029E-04 0.000E+00

     total cpu time spent up to now is       21.1 secs

     total energy              =     -25.16145648 Ry
     estimated scf accuracy    <       0.00000131 Ry

     iteration #  6     ecut=    35.00 Ry     beta= 0.70
     Davidson diagonalization with overlap
     ethr =  1.31E-08,  avg # of iterations =  2.0

     negative rho (up, down):  1.031E-04 0.000E+00

     total cpu time spent up to now is       24.2 secs

     End of self-consistent calculation

          k = 0.0000 0.0000 0.0000 (  6083 PWs)   bands (ev):

   -13.7048  -9.1431  -5.8750  -3.3839  -3.3685  -1.0384   0.5441   0.5608
     0.7978

          k =-0.1250 0.0722 0.0000 (  6114 PWs)   bands (ev):

   -13.5345  -9.1024  -5.8742  -4.5282  -3.6889  -0.4516   0.5941   1.0998
     1.1636

          k =-0.2500 0.1443 0.0000 (  6174 PWs)   bands (ev):

   -13.0373  -9.1162  -6.1373  -5.8349  -4.2389  -0.8035   1.1192   1.3889
     2.1712

          k =-0.3750 0.2165 0.0000 (  6182 PWs)   bands (ev):

   -12.2821  -9.6154  -6.8712  -5.9892  -4.6494  -1.1149   0.6532   1.3585
     3.0243

          k = 0.5000-0.2887 0.0000 (  6174 PWs)   bands (ev):

   -11.7057 -10.2145  -6.9490  -6.0913  -4.7953  -1.1888   0.2953   1.3398
     3.0380

          k = 0.0000 0.1443 0.0000 (  6114 PWs)   bands (ev):

   -13.5344  -9.1026  -5.8745  -4.5361  -3.6795  -0.4486   0.5979   1.0999
     1.1534

          k =-0.1250 0.2165 0.0000 (  6145 PWs)   bands (ev):

   -13.1997  -9.0827  -5.8998  -5.5985  -4.3495   0.2015   0.4506   1.2989
     1.6500

          k =-0.2500 0.2887 0.0000 (  6180 PWs)   bands (ev):

   -12.5624  -9.3298  -6.5568  -5.9893  -5.0468  -0.0460   1.1257   1.2986
     2.0618

          k = 0.6250-0.2165 0.0000 (  6187 PWs)   bands (ev):

   -11.7745 -10.0502  -6.8618  -6.1013  -5.4044  -0.1366   0.5268   1.3540
     2.2806

          k = 0.5000-0.1443 0.0000 (  6185 PWs)   bands (ev):

   -11.7755 -10.0485  -6.8621  -6.0999  -5.4064  -0.1355   0.5258   1.3541
     2.2800

          k = 0.3750-0.0722 0.0000 (  6180 PWs)   bands (ev):

   -12.5633  -9.3279  -6.5550  -5.9874  -5.0525  -0.0444   1.1273   1.2958
     2.0597

          k = 0.2500 0.0000 0.0000 (  6145 PWs)   bands (ev):

   -13.2002  -9.0820  -5.8992  -5.5908  -4.3597   0.2063   0.4414   1.3011
     1.6491

          k = 0.0000 0.2887 0.0000 (  6174 PWs)   bands (ev):

   -13.0365  -9.1176  -6.1423  -5.8359  -4.2320  -0.7972   1.1191   1.3880
     2.4115

          k =-0.1250 0.3609 0.0000 (  6180 PWs)   bands (ev):

   -12.5615  -9.3316  -6.5593  -5.9891  -5.0440  -0.0398   1.1260   1.2968
     2.0604

          k = 0.7500-0.1443 0.0000 (  6177 PWs)   bands (ev):

   -11.8331  -9.8884  -6.5781  -6.3680  -5.8420   0.7612   1.0549   1.8227
     2.1768

          k = 0.6250-0.0722 0.0000 (  6181 PWs)   bands (ev):

   -11.1995 -10.4795  -6.7065  -6.2685  -6.2165   0.6219   1.4015   1.4718
     2.0684

          k = 0.5000 0.0000 0.0000 (  6177 PWs)   bands (ev):

   -11.8360  -9.8832  -6.5765  -6.3676  -5.8466   0.7625   1.0545   1.8193
     2.1685

          k = 0.0000 0.4330 0.0000 (  6182 PWs)   bands (ev):

   -12.2792  -9.6210  -6.8725  -5.9911  -4.6439  -1.1088   0.6544   1.3562
     3.0237

          k = 0.8750-0.0722 0.0000 (  6185 PWs)   bands (ev):

   -11.7701 -10.0575  -6.8619  -6.1030  -5.4003  -0.1304   0.5282   1.3511
     2.2809

          k = 0.7500 0.0000 0.0000 (  6181 PWs)   bands (ev):

   -11.1925 -10.4884  -6.7068  -6.2645  -6.2185   0.6228   1.4002   1.4726
     2.0735

          k = 0.0000-0.5774 0.0000 (  6174 PWs)   bands (ev):

   -11.6983 -10.2256  -6.9480  -6.0944  -4.7901  -1.1828   0.2973   1.3363
     3.0383

     the Fermi energy is    -3.2609 ev

!    total energy              =     -25.16145656 Ry
     estimated scf accuracy    <       0.00000042 Ry
     smearing contrib. (-TS)   =       0.00001855 Ry
     internal energy E=F+TS    =     -25.16147511 Ry

     The total energy is F=E-TS. E is the sum of the following terms:
     one-electron contribution =    -110.91593173 Ry
     hartree contribution      =      56.77576011 Ry
     xc contribution           =     -13.64872827 Ry
     ewald contribution        =      42.62742478 Ry

     convergence has been achieved in   6 iterations

     negative rho (up, down):  1.031E-04 0.000E+00

     Forces acting on atoms (cartesian axes, Ry/au):

     atom    1 type  2   force =     0.00000000   -0.00000847   -0.00207717
     atom    2 type  1   force =     0.00000000   -0.00103454    0.00179703
     atom    3 type  1   force =     0.00000000    0.00103372   -0.00155412
     atom    4 type  2   force =     0.00000000    0.00000929    0.00183426

     Total force =     0.003932     Total SCF correction =     0.001118
     SCF correction compared to forces is large: reduce conv_thr to get better values

     BFGS Geometry Optimization

     number of scf cycles    =   1
     number of bfgs steps    =   0

     energy   new            =     -25.1614565645 Ry

     new trust radius        =       0.0020771870 bohr

     The maximum number of steps has been reached.

     End of BFGS Geometry Optimization

ATOMIC_POSITIONS (crystal)
H            -0.0000006663       -0.0000006663       -0.0000549882
Si           -0.0000813388       -0.0000813388        0.0750475722
Si            0.3330812747        0.3330812747        0.1109588582
H             0.3330007304        0.3330007304        0.1860485578



     Writing output data file /home/jesus/Documentos/Nanociencia_DFT/silicano.save/
     NEW-OLD atomic charge density approx. for the potential

     negative rho (up, down):  1.031E-04 0.000E+00

     Writing output data file /home/jesus/Documentos/Nanociencia_DFT/silicano.save/
 
     init_run     :      1.91s CPU      2.08s WALL (       1 calls)
     electrons    :     19.99s CPU     21.37s WALL (       1 calls)
     update_pot   :      0.54s CPU      0.54s WALL (       1 calls)
     forces       :      0.89s CPU      1.02s WALL (       1 calls)

     Called by init_run:
     wfcinit      :      0.77s CPU      0.79s WALL (       1 calls)
     potinit      :      0.29s CPU      0.31s WALL (       1 calls)
     hinit0       :      0.56s CPU      0.58s WALL (       1 calls)

     Called by electrons:
     c_bands      :     14.11s CPU     14.15s WALL (       6 calls)
     sum_band     :      3.77s CPU      4.38s WALL (       6 calls)
     v_of_rho     :      0.82s CPU      0.86s WALL (       8 calls)
     newd         :      1.77s CPU      2.71s WALL (       8 calls)
     mix_rho      :      0.08s CPU      0.08s WALL (       6 calls)

     Called by c_bands:
     init_us_2    :      0.62s CPU      0.62s WALL (     294 calls)
     cegterg      :     11.70s CPU     11.74s WALL (     126 calls)

     Called by *egterg:
     cdiaghg      :      0.09s CPU      0.09s WALL (     599 calls)
     h_psi        :     10.71s CPU     10.75s WALL (     620 calls)
     s_psi        :      0.45s CPU      0.45s WALL (     620 calls)
     g_psi        :      0.05s CPU      0.05s WALL (     473 calls)

     Called by h_psi:
     h_psi:calbec :      0.49s CPU      0.49s WALL (     620 calls)
     vloc_psi     :      9.70s CPU      9.73s WALL (     620 calls)
     add_vuspsi   :      0.46s CPU      0.46s WALL (     620 calls)

     General routines
     calbec       :      0.71s CPU      0.71s WALL (     830 calls)
     fft          :      0.35s CPU      0.37s WALL (     114 calls)
     ffts         :      0.02s CPU      0.02s WALL (      14 calls)
     fftw         :      9.93s CPU      9.96s WALL (    8234 calls)
     interpolate  :      0.05s CPU      0.05s WALL (       8 calls)
     davcio       :      0.00s CPU      0.00s WALL (      21 calls)
 
     Parallel routines
 
     PWSCF        :     24.31s CPU     26.18s WALL

 
   This run was terminated on:  23:51:22   1Apr2021            

=------------------------------------------------------------------------------=
   JOB DONE.
=------------------------------------------------------------------------------=
