
     Program PWSCF v.6.6 starts on 31Mar2021 at 17: 6:35 

     This program is part of the open-source Quantum ESPRESSO suite
     for quantum simulation of materials; please cite
         "P. Giannozzi et al., J. Phys.:Condens. Matter 21 395502 (2009);
         "P. Giannozzi et al., J. Phys.:Condens. Matter 29 465901 (2017);
          URL http://www.quantum-espresso.org", 
     in publications or presentations arising from this work. More details at
     http://www.quantum-espresso.org/quote

     Parallel version (MPI), running on     1 processors

     MPI processes distributed on     1 nodes
     Fft bands division:     nmany     =       1
     Waiting for input...
     Reading input from standard input
Warning: card &CELL ignored
Warning: card   CELL_DYNAMICS='BFGS', ignored
Warning: card   CELL_DOFREE='ALL', ignored
Warning: card / ignored

     Current dimensions of program PWSCF are:
     Max number of different atomic species (ntypx) = 10
     Max number of k-points (npk) =  40000
     Max angular momentum in pseudopotentials (lmaxx) =  3

     File /home/jesus/Documentos/Nanociencia_DFT/silicano.update deleted, as requested

     File /home/jesus/Documentos/Nanociencia_DFT/silicano.bfgs deleted, as requested
     file H.pbe-kjpaw_psl.1.0.0.UPF: wavefunction(s)  1S renormalized

     Subspace diagonalization in iterative solution of the eigenvalue problem:
     a serial algorithm will be used

     Message from routine setup:
     using ibrav=0 with symmetry is DISCOURAGED, use correct ibrav instead
 
     G-vector sticks info
     --------------------
     sticks:   dense  smooth     PW     G-vecs:    dense   smooth      PW
     Sum         637     421    139                66313    36077    6679
 


     bravais-lattice index     =            0
     lattice parameter (alat)  =       6.6140  a.u.
     unit-cell volume          =    1288.9011 (a.u.)^3
     number of atoms/cell      =            4
     number of atomic types    =            2
     number of electrons       =        10.00
     number of Kohn-Sham states=            9
     kinetic-energy cutoff     =      35.0000  Ry
     charge density cutoff     =     210.0000  Ry
     convergence threshold     =      1.0E-06
     mixing beta               =       0.7000
     number of iterations used =            8  plain     mixing
     Exchange-correlation= SLA PW PBX PBC
                           (   1   4   3   4   0   0   0)
     nstep                     =            1


     celldm(1)=   6.614041  celldm(2)=   0.000000  celldm(3)=   0.000000
     celldm(4)=   0.000000  celldm(5)=   0.000000  celldm(6)=   0.000000

     crystal axes: (cart. coord. in units of alat)
               a(1) = (   0.500000   0.866000   0.000000 )  
               a(2) = (  -0.500000   0.866000   0.000000 )  
               a(3) = (   0.000000   0.000000   5.144000 )  

     reciprocal axes: (cart. coord. in units 2 pi/alat)
               b(1) = (  1.000000  0.577367  0.000000 )  
               b(2) = ( -1.000000  0.577367  0.000000 )  
               b(3) = (  0.000000  0.000000  0.194401 )  


     PseudoPot. # 1 for Si read from file:
     /home/jesus/Nanociencia_DFT/pseudopotenciales/Si.pbe-n-rrkjus_psl.1.0.0.UPF
     MD5 check sum: fa25574f73a70a4139f2adfbefec430c
     Pseudo is Ultrasoft + core correction, Zval =  4.0
     Generated using "atomic" code by A. Dal Corso v.6.3
     Using radial grid of 1141 points,  6 beta functions with: 
                l(1) =   0
                l(2) =   0
                l(3) =   1
                l(4) =   1
                l(5) =   2
                l(6) =   2
     Q(r) pseudized with 0 coefficients 


     PseudoPot. # 2 for H  read from file:
     /home/jesus/Nanociencia_DFT/pseudopotenciales/H.pbe-kjpaw_psl.1.0.0.UPF
     MD5 check sum: d81a744832360e4a8af0b0b5b123bc2a
     Pseudo is Projector augmented-wave, Zval =  1.0
     Generated using "atomic" code by A. Dal Corso v.6.3MaX
     Shape of augmentation charge: PSQ
     Using radial grid of  929 points,  2 beta functions with: 
                l(1) =   0
                l(2) =   0
     Q(r) pseudized with 0 coefficients 


     atomic species   valence    mass     pseudopotential
        Si             4.00    28.08550     Si( 1.00)
        H              1.00     1.00800     H ( 1.00)

      2 Sym. Ops. (no inversion) found



   Cartesian axes

     site n.     atom                  positions (alat units)
         1           H   tau(   1) = (   0.0000000   0.0000000   0.0000000  )
         2           Si  tau(   2) = (   0.0000000   0.0000000   0.3858000  )
         3           Si  tau(   3) = (   0.0000000   0.5767560   0.5709840  )
         4           H   tau(   4) = (   0.0000000   0.5767560   0.9567840  )

     number of k points=    21  Methfessel-Paxton smearing, width (Ry)=  0.0100
                       cart. coord. in units 2pi/alat
        k(    1) = (   0.0000000   0.0000000   0.0000000), wk =   0.0312500
        k(    2) = (  -0.1250000   0.0721709   0.0000000), wk =   0.1250000
        k(    3) = (  -0.2500000   0.1443418   0.0000000), wk =   0.1250000
        k(    4) = (  -0.3750000   0.2165127   0.0000000), wk =   0.1250000
        k(    5) = (   0.5000000  -0.2886836   0.0000000), wk =   0.0625000
        k(    6) = (   0.0000000   0.1443418   0.0000000), wk =   0.0625000
        k(    7) = (  -0.1250000   0.2165127   0.0000000), wk =   0.1250000
        k(    8) = (  -0.2500000   0.2886836   0.0000000), wk =   0.1250000
        k(    9) = (   0.6250000  -0.2165127   0.0000000), wk =   0.1250000
        k(   10) = (   0.5000000  -0.1443418   0.0000000), wk =   0.1250000
        k(   11) = (   0.3750000  -0.0721709   0.0000000), wk =   0.1250000
        k(   12) = (   0.2500000   0.0000000   0.0000000), wk =   0.0625000
        k(   13) = (   0.0000000   0.2886836   0.0000000), wk =   0.0625000
        k(   14) = (  -0.1250000   0.3608545   0.0000000), wk =   0.1250000
        k(   15) = (   0.7500000  -0.1443418   0.0000000), wk =   0.1250000
        k(   16) = (   0.6250000  -0.0721709   0.0000000), wk =   0.1250000
        k(   17) = (   0.5000000   0.0000000   0.0000000), wk =   0.0625000
        k(   18) = (   0.0000000   0.4330254   0.0000000), wk =   0.0625000
        k(   19) = (   0.8750000  -0.0721709   0.0000000), wk =   0.1250000
        k(   20) = (   0.7500000   0.0000000   0.0000000), wk =   0.0625000
        k(   21) = (   0.0000000  -0.5773672   0.0000000), wk =   0.0312500

     Dense  grid:    66313 G-vectors     FFT dimensions: (  32,  32, 160)

     Smooth grid:    36077 G-vectors     FFT dimensions: (  25,  25, 135)

     Estimated max dynamical RAM per process >     252.08 MB

     Initial potential from superposition of free atoms

     starting charge    9.99886, renormalised to   10.00000

     negative rho (up, down):  7.855E-05 0.000E+00
     Starting wfcs are   10 randomized atomic wfcs
     Checking if some PAW data can be deallocated... 

     total cpu time spent up to now is        2.6 secs

     Self-consistent Calculation

     iteration #  1     ecut=    35.00 Ry     beta= 0.70
     Davidson diagonalization with overlap
     ethr =  1.00E-02,  avg # of iterations =  4.8

     negative rho (up, down):  6.423E-05 0.000E+00

     total cpu time spent up to now is        6.2 secs

     total energy              =     -25.02365676 Ry
     estimated scf accuracy    <       0.25185664 Ry

     iteration #  2     ecut=    35.00 Ry     beta= 0.70
     Davidson diagonalization with overlap
     ethr =  2.52E-03,  avg # of iterations =  1.9

     negative rho (up, down):  8.533E-05 0.000E+00

     total cpu time spent up to now is        8.8 secs

     total energy              =     -25.04270034 Ry
     estimated scf accuracy    <       0.00463827 Ry

     iteration #  3     ecut=    35.00 Ry     beta= 0.70
     Davidson diagonalization with overlap
     ethr =  4.64E-05,  avg # of iterations =  9.2

     negative rho (up, down):  9.352E-05 0.000E+00

     total cpu time spent up to now is       13.2 secs

     total energy              =     -25.04362914 Ry
     estimated scf accuracy    <       0.00017785 Ry

     iteration #  4     ecut=    35.00 Ry     beta= 0.70
     Davidson diagonalization with overlap
     ethr =  1.78E-06,  avg # of iterations =  6.7

     negative rho (up, down):  9.653E-05 0.000E+00

     total cpu time spent up to now is       16.8 secs

     total energy              =     -25.04365472 Ry
     estimated scf accuracy    <       0.00001232 Ry

     iteration #  5     ecut=    35.00 Ry     beta= 0.70
     Davidson diagonalization with overlap
     ethr =  1.23E-07,  avg # of iterations =  2.2

     negative rho (up, down):  9.679E-05 0.000E+00

     total cpu time spent up to now is       19.7 secs

     total energy              =     -25.04365675 Ry
     estimated scf accuracy    <       0.00001147 Ry

     iteration #  6     ecut=    35.00 Ry     beta= 0.70
     Davidson diagonalization with overlap
     ethr =  1.15E-07,  avg # of iterations =  1.6

     negative rho (up, down):  9.726E-05 0.000E+00

     total cpu time spent up to now is       22.2 secs

     End of self-consistent calculation

          k = 0.0000 0.0000 0.0000 (  4505 PWs)   bands (ev):

   -14.5917  -9.4145  -5.5347  -2.3390  -2.3227   0.4577   1.7541   1.7561
     1.7726

          k =-0.1250 0.0722 0.0000 (  4499 PWs)   bands (ev):

   -14.3709  -9.2984  -5.5142  -3.7099  -2.7816   0.7607   1.6265   2.0235
     2.3569

          k =-0.2500 0.1443 0.0000 (  4523 PWs)   bands (ev):

   -13.7216  -9.0753  -5.8931  -5.3928  -3.5241   0.1763   2.0939   2.3589
     3.0249

          k =-0.3750 0.2165 0.0000 (  4511 PWs)   bands (ev):

   -12.7116  -9.4363  -6.9984  -5.5970  -4.0560  -0.2577   1.2758   2.6742
     3.8016

          k = 0.5000-0.2887 0.0000 (  4516 PWs)   bands (ev):

   -11.8717 -10.2844  -7.0280  -5.7660  -4.2422  -0.3809   0.8726   2.6006
     4.5310

          k = 0.0000 0.1443 0.0000 (  4499 PWs)   bands (ev):

   -14.3707  -9.2984  -5.5145  -3.7180  -2.7721   0.7653   1.6282   2.0233
     2.3547

          k =-0.1250 0.2165 0.0000 (  4492 PWs)   bands (ev):

   -13.9349  -9.1197  -5.5233  -5.0654  -3.7481   1.3677   1.6722   2.4111
     2.4244

          k =-0.2500 0.2887 0.0000 (  4504 PWs)   bands (ev):

   -13.0952  -9.1082  -6.5182  -5.6249  -4.6546   1.0341   1.9570   2.4845
     3.1701

          k = 0.6250-0.2165 0.0000 (  4520 PWs)   bands (ev):

   -12.0111  -9.9555  -6.9553  -5.7764  -5.1175   0.8570   1.1905   2.6509
     3.5526

          k = 0.5000-0.1443 0.0000 (  4520 PWs)   bands (ev):

   -12.0120  -9.9539  -6.9559  -5.7747  -5.1196   0.8595   1.1884   2.6494
     3.5524

          k = 0.3750-0.0722 0.0000 (  4504 PWs)   bands (ev):

   -13.0959  -9.1068  -6.5165  -5.6229  -4.6599   1.0364   1.9590   2.4777
     3.1685

          k = 0.2500 0.0000 0.0000 (  4492 PWs)   bands (ev):

   -13.9353  -9.1194  -5.5227  -5.0571  -3.7585   1.3703   1.6646   2.4127
     2.4227

          k = 0.0000 0.2887 0.0000 (  4523 PWs)   bands (ev):

   -13.7210  -9.0759  -5.8973  -5.3946  -3.5173   0.1824   2.0938   2.3566
     3.0232

          k =-0.1250 0.3609 0.0000 (  4504 PWs)   bands (ev):

   -13.0945  -9.1095  -6.5203  -5.6250  -4.6519   1.0404   1.9582   2.4790
     3.1702

          k = 0.7500-0.1443 0.0000 (  4500 PWs)   bands (ev):

   -12.1204  -9.6249  -6.5213  -6.4530  -5.5208   1.4062   2.0416   2.9262
     3.4766

          k = 0.6250-0.0722 0.0000 (  4494 PWs)   bands (ev):

   -11.2374 -10.3855  -6.9469  -6.1689  -5.9255   1.1316   2.4195   2.5118
     3.8118

          k = 0.5000 0.0000 0.0000 (  4500 PWs)   bands (ev):

   -12.1228  -9.6198  -6.5200  -6.4557  -5.5221   1.4060   2.0432   2.9230
     3.4681

          k = 0.0000 0.4330 0.0000 (  4511 PWs)   bands (ev):

   -12.7093  -9.4411  -6.9984  -5.5999  -4.0505  -0.2525   1.2773   2.6700
     3.8018

          k = 0.8750-0.0722 0.0000 (  4520 PWs)   bands (ev):

   -12.0072  -9.9625  -6.9535  -5.7791  -5.1139   0.8630   1.1928   2.6453
     3.5530

          k = 0.7500 0.0000 0.0000 (  4494 PWs)   bands (ev):

   -11.2304 -10.3948  -6.9448  -6.1655  -5.9289   1.1332   2.4186   2.5130
     3.8147

          k = 0.0000-0.5774 0.0000 (  4512 PWs)   bands (ev):

   -11.8645 -10.2954  -7.0248  -5.7708  -4.2370  -0.3763   0.8761   2.5944
     4.5324

     the Fermi energy is    -1.3418 ev

!    total energy              =     -25.04365867 Ry
     estimated scf accuracy    <       0.00000025 Ry
     smearing contrib. (-TS)   =       0.00000000 Ry
     internal energy E=F+TS    =     -25.04365867 Ry

     The total energy is F=E-TS. E is the sum of the following terms:
     one-electron contribution =    -119.81941449 Ry
     hartree contribution      =      61.55097234 Ry
     xc contribution           =     -14.10356756 Ry
     ewald contribution        =      47.32862075 Ry
     one-center paw contrib.   =      -0.00026972 Ry

     convergence has been achieved in   6 iterations

     negative rho (up, down):  9.726E-05 0.000E+00

     Forces acting on atoms (cartesian axes, Ry/au):

     atom    1 type  2   force =     0.00000000   -0.00003017   -0.13976673
     atom    2 type  1   force =     0.00000000   -0.00212176    0.01628878
     atom    3 type  1   force =     0.00000000    0.00212319   -0.01638958
     atom    4 type  2   force =     0.00000000    0.00002874    0.13986752

     Total force =     0.199100     Total SCF correction =     0.000232

     BFGS Geometry Optimization

     number of scf cycles    =   1
     number of bfgs steps    =   0

     energy   new            =     -25.0436586733 Ry

     new trust radius        =       0.1398675250 bohr

     The maximum number of steps has been reached.

     End of BFGS Geometry Optimization

ATOMIC_POSITIONS (crystal)
H            -0.0000026335       -0.0000026335       -0.0041080519
Si           -0.0001852173       -0.0001852173        0.0754787632
Si            0.3331853424        0.3331853424        0.1105182742
H             0.3330025084        0.3330025084        0.1901110145



     Writing output data file /home/jesus/Documentos/Nanociencia_DFT/silicano.save/
     NEW-OLD atomic charge density approx. for the potential

     negative rho (up, down):  9.010E-05 0.000E+00

     Writing output data file /home/jesus/Documentos/Nanociencia_DFT/silicano.save/
 
     init_run     :      1.60s CPU      1.75s WALL (       1 calls)
     electrons    :     18.33s CPU     19.66s WALL (       1 calls)
     update_pot   :      0.44s CPU      0.44s WALL (       1 calls)
     forces       :      0.68s CPU      0.80s WALL (       1 calls)

     Called by init_run:
     wfcinit      :      0.69s CPU      0.70s WALL (       1 calls)
     potinit      :      0.24s CPU      0.26s WALL (       1 calls)
     hinit0       :      0.44s CPU      0.46s WALL (       1 calls)

     Called by electrons:
     c_bands      :     13.23s CPU     13.34s WALL (       6 calls)
     sum_band     :      3.41s CPU      3.99s WALL (       6 calls)
     v_of_rho     :      0.63s CPU      0.67s WALL (       8 calls)
     newd         :      1.47s CPU      2.26s WALL (       8 calls)
     PAW_pot      :      0.01s CPU      0.01s WALL (       9 calls)
     mix_rho      :      0.06s CPU      0.06s WALL (       6 calls)

     Called by c_bands:
     init_us_2    :      0.55s CPU      0.56s WALL (     315 calls)
     cegterg      :     11.26s CPU     11.36s WALL (     126 calls)

     Called by *egterg:
     cdiaghg      :      0.11s CPU      0.12s WALL (     678 calls)
     h_psi        :     10.32s CPU     10.41s WALL (     699 calls)
     s_psi        :      0.39s CPU      0.39s WALL (     699 calls)
     g_psi        :      0.04s CPU      0.04s WALL (     552 calls)

     Called by h_psi:
     h_psi:calbec :      0.44s CPU      0.44s WALL (     699 calls)
     vloc_psi     :      9.42s CPU      9.51s WALL (     699 calls)
     add_vuspsi   :      0.41s CPU      0.41s WALL (     699 calls)

     General routines
     calbec       :      0.63s CPU      0.63s WALL (     930 calls)
     fft          :      0.21s CPU      0.23s WALL (     114 calls)
     ffts         :      0.01s CPU      0.02s WALL (      14 calls)
     fftw         :      9.20s CPU      9.30s WALL (    8428 calls)
     interpolate  :      0.03s CPU      0.04s WALL (       8 calls)
     davcio       :      0.00s CPU      0.00s WALL (      21 calls)
 
     Parallel routines
 
     PWSCF        :     22.14s CPU     23.86s WALL

 
   This run was terminated on:  17: 6:59  31Mar2021            

=------------------------------------------------------------------------------=
   JOB DONE.
=------------------------------------------------------------------------------=
