
     Program PWSCF v.6.6 starts on  1Apr2021 at 23:34:14 

     This program is part of the open-source Quantum ESPRESSO suite
     for quantum simulation of materials; please cite
         "P. Giannozzi et al., J. Phys.:Condens. Matter 21 395502 (2009);
         "P. Giannozzi et al., J. Phys.:Condens. Matter 29 465901 (2017);
          URL http://www.quantum-espresso.org", 
     in publications or presentations arising from this work. More details at
     http://www.quantum-espresso.org/quote

     Parallel version (MPI), running on     1 processors

     MPI processes distributed on     1 nodes
     Fft bands division:     nmany     =       1
     Waiting for input...
     Reading input from standard input
Warning: card &CELL ignored
Warning: card   CELL_DYNAMICS='BFGS', ignored
Warning: card   CELL_DOFREE='ALL', ignored
Warning: card / ignored

     Current dimensions of program PWSCF are:
     Max number of different atomic species (ntypx) = 10
     Max number of k-points (npk) =  40000
     Max angular momentum in pseudopotentials (lmaxx) =  3

     File /home/jesus/Documentos/Nanociencia_DFT/silicano.update deleted, as requested

     File /home/jesus/Documentos/Nanociencia_DFT/silicano.bfgs deleted, as requested

     Subspace diagonalization in iterative solution of the eigenvalue problem:
     a serial algorithm will be used

     Message from routine setup:
     using ibrav=0 with symmetry is DISCOURAGED, use correct ibrav instead
 
     G-vector sticks info
     --------------------
     sticks:   dense  smooth     PW     G-vecs:    dense   smooth      PW
     Sum         805     517    163                93789    50735    9111
 


     bravais-lattice index     =            0
     lattice parameter (alat)  =       7.4266  a.u.
     unit-cell volume          =    1824.7069 (a.u.)^3
     number of atoms/cell      =            4
     number of atomic types    =            2
     number of electrons       =        10.00
     number of Kohn-Sham states=            9
     kinetic-energy cutoff     =      35.0000  Ry
     charge density cutoff     =     210.0000  Ry
     convergence threshold     =      1.0E-06
     mixing beta               =       0.7000
     number of iterations used =            8  plain     mixing
     Exchange-correlation= PBE
                           (   1   4   3   4   0   0   0)
     nstep                     =            1


     celldm(1)=   7.426624  celldm(2)=   0.000000  celldm(3)=   0.000000
     celldm(4)=   0.000000  celldm(5)=   0.000000  celldm(6)=   0.000000

     crystal axes: (cart. coord. in units of alat)
               a(1) = (   0.500000   0.866000   0.000000 )  
               a(2) = (  -0.500000   0.866000   0.000000 )  
               a(3) = (   0.000000   0.000000   5.144000 )  

     reciprocal axes: (cart. coord. in units 2 pi/alat)
               b(1) = (  1.000000  0.577367  0.000000 )  
               b(2) = ( -1.000000  0.577367  0.000000 )  
               b(3) = (  0.000000  0.000000  0.194401 )  


     PseudoPot. # 1 for Si read from file:
     /home/jesus/Nanociencia_DFT/pseudopotenciales/Si.pbe-n-rrkjus_psl.1.0.0.UPF
     MD5 check sum: fa25574f73a70a4139f2adfbefec430c
     Pseudo is Ultrasoft + core correction, Zval =  4.0
     Generated using "atomic" code by A. Dal Corso v.6.3
     Using radial grid of 1141 points,  6 beta functions with: 
                l(1) =   0
                l(2) =   0
                l(3) =   1
                l(4) =   1
                l(5) =   2
                l(6) =   2
     Q(r) pseudized with 0 coefficients 


     PseudoPot. # 2 for H  read from file:
     /home/jesus/Nanociencia_DFT/pseudopotenciales/H.pbe-rrkjus_psl.1.0.0.UPF
     MD5 check sum: 3f4114867bd07edc7f1424d066fc1888
     Pseudo is Ultrasoft, Zval =  1.0
     Generated using "atomic" code by A. Dal Corso v.6.3MaX
     Using radial grid of  929 points,  2 beta functions with: 
                l(1) =   0
                l(2) =   0
     Q(r) pseudized with 0 coefficients 


     atomic species   valence    mass     pseudopotential
        Si             4.00    28.08550     Si( 1.00)
        H              1.00     1.00800     H ( 1.00)

      2 Sym. Ops. (no inversion) found



   Cartesian axes

     site n.     atom                  positions (alat units)
         1           H   tau(   1) = (   0.0000000   0.0000000   0.0000000  )
         2           Si  tau(   2) = (   0.0000000   0.0000000   0.3858000  )
         3           Si  tau(   3) = (   0.0000000   0.5767560   0.5709840  )
         4           H   tau(   4) = (   0.0000000   0.5767560   0.9567840  )

     number of k points=    21  Methfessel-Paxton smearing, width (Ry)=  0.0100
                       cart. coord. in units 2pi/alat
        k(    1) = (   0.0000000   0.0000000   0.0000000), wk =   0.0312500
        k(    2) = (  -0.1250000   0.0721709   0.0000000), wk =   0.1250000
        k(    3) = (  -0.2500000   0.1443418   0.0000000), wk =   0.1250000
        k(    4) = (  -0.3750000   0.2165127   0.0000000), wk =   0.1250000
        k(    5) = (   0.5000000  -0.2886836   0.0000000), wk =   0.0625000
        k(    6) = (   0.0000000   0.1443418   0.0000000), wk =   0.0625000
        k(    7) = (  -0.1250000   0.2165127   0.0000000), wk =   0.1250000
        k(    8) = (  -0.2500000   0.2886836   0.0000000), wk =   0.1250000
        k(    9) = (   0.6250000  -0.2165127   0.0000000), wk =   0.1250000
        k(   10) = (   0.5000000  -0.1443418   0.0000000), wk =   0.1250000
        k(   11) = (   0.3750000  -0.0721709   0.0000000), wk =   0.1250000
        k(   12) = (   0.2500000   0.0000000   0.0000000), wk =   0.0625000
        k(   13) = (   0.0000000   0.2886836   0.0000000), wk =   0.0625000
        k(   14) = (  -0.1250000   0.3608545   0.0000000), wk =   0.1250000
        k(   15) = (   0.7500000  -0.1443418   0.0000000), wk =   0.1250000
        k(   16) = (   0.6250000  -0.0721709   0.0000000), wk =   0.1250000
        k(   17) = (   0.5000000   0.0000000   0.0000000), wk =   0.0625000
        k(   18) = (   0.0000000   0.4330254   0.0000000), wk =   0.0625000
        k(   19) = (   0.8750000  -0.0721709   0.0000000), wk =   0.1250000
        k(   20) = (   0.7500000   0.0000000   0.0000000), wk =   0.0625000
        k(   21) = (   0.0000000  -0.5773672   0.0000000), wk =   0.0312500

     Dense  grid:    93789 G-vectors     FFT dimensions: (  36,  36, 180)

     Smooth grid:    50735 G-vectors     FFT dimensions: (  27,  27, 144)

     Estimated max dynamical RAM per process >     355.68 MB

     Initial potential from superposition of free atoms

     starting charge    9.99886, renormalised to   10.00000

     negative rho (up, down):  1.043E-04 0.000E+00
     Starting wfcs are   10 randomized atomic wfcs

     total cpu time spent up to now is        3.0 secs

     Self-consistent Calculation

     iteration #  1     ecut=    35.00 Ry     beta= 0.70
     Davidson diagonalization with overlap
     ethr =  1.00E-02,  avg # of iterations =  3.1

     negative rho (up, down):  8.579E-05 0.000E+00

     total cpu time spent up to now is        6.8 secs

     total energy              =     -25.15031828 Ry
     estimated scf accuracy    <       0.15877212 Ry

     iteration #  2     ecut=    35.00 Ry     beta= 0.70
     Davidson diagonalization with overlap
     ethr =  1.59E-03,  avg # of iterations =  1.4

     negative rho (up, down):  1.003E-04 0.000E+00

     total cpu time spent up to now is        9.8 secs

     total energy              =     -25.15975020 Ry
     estimated scf accuracy    <       0.00479248 Ry

     iteration #  3     ecut=    35.00 Ry     beta= 0.70
     Davidson diagonalization with overlap
     ethr =  4.79E-05,  avg # of iterations =  8.6

     negative rho (up, down):  1.020E-04 0.000E+00

     total cpu time spent up to now is       14.6 secs

     total energy              =     -25.16058991 Ry
     estimated scf accuracy    <       0.00030626 Ry

     iteration #  4     ecut=    35.00 Ry     beta= 0.70
     Davidson diagonalization with overlap
     ethr =  3.06E-06,  avg # of iterations =  4.7

     negative rho (up, down):  1.053E-04 0.000E+00

     total cpu time spent up to now is       18.4 secs

     total energy              =     -25.16064056 Ry
     estimated scf accuracy    <       0.00002706 Ry

     iteration #  5     ecut=    35.00 Ry     beta= 0.70
     Davidson diagonalization with overlap
     ethr =  2.71E-07,  avg # of iterations =  1.8

     negative rho (up, down):  1.053E-04 0.000E+00

     total cpu time spent up to now is       21.6 secs

     total energy              =     -25.16064358 Ry
     estimated scf accuracy    <       0.00000424 Ry

     iteration #  6     ecut=    35.00 Ry     beta= 0.70
     Davidson diagonalization with overlap
     ethr =  4.24E-08,  avg # of iterations =  1.1

     negative rho (up, down):  1.055E-04 0.000E+00

     total cpu time spent up to now is       24.5 secs

     End of self-consistent calculation

          k = 0.0000 0.0000 0.0000 (  6281 PWs)   bands (ev):

   -13.6175  -9.1247  -5.9067  -3.4718  -3.4565  -1.2279   0.4229   0.4396
     0.6899

          k =-0.1250 0.0722 0.0000 (  6328 PWs)   bands (ev):

   -13.4521  -9.0918  -5.9075  -4.5989  -3.7648  -0.5971   0.4790   0.9650
     1.0199

          k =-0.2500 0.1443 0.0000 (  6360 PWs)   bands (ev):

   -12.9696  -9.1281  -6.1543  -5.8722  -4.2966  -0.9099   1.0063   1.2849
     2.2307

          k =-0.3750 0.2165 0.0000 (  6378 PWs)   bands (ev):

   -12.2385  -9.6340  -6.8558  -6.0221  -4.6953  -1.2107   0.5809   1.2268
     2.8509

          k = 0.5000-0.2887 0.0000 (  6382 PWs)   bands (ev):

   -11.6849 -10.2118  -6.9363  -6.1185  -4.8372  -1.2827   0.2314   1.2146
     2.8807

          k = 0.0000 0.1443 0.0000 (  6328 PWs)   bands (ev):

   -13.4519  -9.0920  -5.9077  -4.6067  -3.7554  -0.5945   0.4834   0.9653
     1.0097

          k =-0.1250 0.2165 0.0000 (  6351 PWs)   bands (ev):

   -13.1270  -9.0879  -5.9337  -5.6398  -4.3988   0.0677   0.3300   1.1593
     1.5746

          k =-0.2500 0.2887 0.0000 (  6397 PWs)   bands (ev):

   -12.5092  -9.3545  -6.5553  -6.0207  -5.0751  -0.1629   1.0227   1.1810
     1.9312

          k = 0.6250-0.2165 0.0000 (  6407 PWs)   bands (ev):

   -11.7486 -10.0603  -6.8491  -6.1284  -5.4228  -0.2544   0.4547   1.2277
     2.1489

          k = 0.5000-0.1443 0.0000 (  6407 PWs)   bands (ev):

   -11.7495 -10.0586  -6.8494  -6.1271  -5.4249  -0.2534   0.4539   1.2281
     2.1483

          k = 0.3750-0.0722 0.0000 (  6397 PWs)   bands (ev):

   -12.5101  -9.3526  -6.5534  -6.0188  -5.0808  -0.1614   1.0241   1.1794
     1.9291

          k = 0.2500 0.0000 0.0000 (  6351 PWs)   bands (ev):

   -13.1276  -9.0871  -5.9330  -5.6323  -4.4088   0.0728   0.3207   1.1615
     1.5739

          k = 0.0000 0.2887 0.0000 (  6360 PWs)   bands (ev):

   -12.9687  -9.1296  -6.1593  -5.8731  -4.2898  -0.9035   1.0063   1.2845
     2.2250

          k =-0.1250 0.3609 0.0000 (  6397 PWs)   bands (ev):

   -12.5083  -9.3563  -6.5578  -6.0205  -5.0723  -0.1568   1.0228   1.1800
     1.9293

          k = 0.7500-0.1443 0.0000 (  6399 PWs)   bands (ev):

   -11.8030  -9.9115  -6.5797  -6.3627  -5.8598   0.6912   0.9406   1.7049
     2.0594

          k = 0.6250-0.0722 0.0000 (  6390 PWs)   bands (ev):

   -11.1916 -10.4865  -6.6863  -6.2664  -6.2395   0.5629   1.2857   1.3605
     1.8859

          k = 0.5000 0.0000 0.0000 (  6399 PWs)   bands (ev):

   -11.8060  -9.9063  -6.5780  -6.3619  -5.8647   0.6927   0.9399   1.7019
     2.0512

          k = 0.0000 0.4330 0.0000 (  6378 PWs)   bands (ev):

   -12.2356  -9.6396  -6.8572  -6.0239  -4.6898  -1.2045   0.5820   1.2246
     2.8501

          k = 0.8750-0.0722 0.0000 (  6407 PWs)   bands (ev):

   -11.7440 -10.0676  -6.8494  -6.1300  -5.4187  -0.2481   0.4561   1.2253
     2.1491

          k = 0.7500 0.0000 0.0000 (  6391 PWs)   bands (ev):

   -11.1846 -10.4953  -6.6869  -6.2622  -6.2414   0.5637   1.2842   1.3613
     1.8914

          k = 0.0000-0.5774 0.0000 (  6382 PWs)   bands (ev):

   -11.6776 -10.2228  -6.9355  -6.1215  -4.8320  -1.2766   0.2333   1.2114
     2.8809

     the Fermi energy is    -3.3489 ev

!    total energy              =     -25.16064414 Ry
     estimated scf accuracy    <       0.00000047 Ry
     smearing contrib. (-TS)   =       0.00001868 Ry
     internal energy E=F+TS    =     -25.16066282 Ry

     The total energy is F=E-TS. E is the sum of the following terms:
     one-electron contribution =    -109.98951144 Ry
     hartree contribution      =      56.28272610 Ry
     xc contribution           =     -13.60404865 Ry
     ewald contribution        =      42.15017117 Ry

     convergence has been achieved in   6 iterations

     negative rho (up, down):  1.055E-04 0.000E+00

     Forces acting on atoms (cartesian axes, Ry/au):

     atom    1 type  2   force =     0.00000000   -0.00000963    0.00862525
     atom    2 type  1   force =     0.00000000   -0.00096011   -0.00036018
     atom    3 type  1   force =     0.00000000    0.00096299    0.00053981
     atom    4 type  2   force =     0.00000000    0.00000675   -0.00880488

     Total force =     0.012417     Total SCF correction =     0.000505

     BFGS Geometry Optimization

     number of scf cycles    =   1
     number of bfgs steps    =   0

     energy   new            =     -25.1606441404 Ry

     new trust radius        =       0.0088048781 bohr

     The maximum number of steps has been reached.

     End of BFGS Geometry Optimization

ATOMIC_POSITIONS (crystal)
H            -0.0000007488       -0.0000007488        0.0002257768
Si           -0.0000746415       -0.0000746415        0.0749905718
Si            0.3330748658        0.3330748658        0.1110141301
H             0.3330005246        0.3330005246        0.1857695213



     Writing output data file /home/jesus/Documentos/Nanociencia_DFT/silicano.save/
     NEW-OLD atomic charge density approx. for the potential

     negative rho (up, down):  1.059E-04 0.000E+00

     Writing output data file /home/jesus/Documentos/Nanociencia_DFT/silicano.save/
 
     init_run     :      1.96s CPU      2.15s WALL (       1 calls)
     electrons    :     19.84s CPU     21.49s WALL (       1 calls)
     update_pot   :      0.56s CPU      0.56s WALL (       1 calls)
     forces       :      0.91s CPU      1.04s WALL (       1 calls)

     Called by init_run:
     wfcinit      :      0.81s CPU      0.81s WALL (       1 calls)
     potinit      :      0.28s CPU      0.31s WALL (       1 calls)
     hinit0       :      0.57s CPU      0.61s WALL (       1 calls)

     Called by electrons:
     c_bands      :     13.89s CPU     14.04s WALL (       6 calls)
     sum_band     :      3.81s CPU      4.57s WALL (       6 calls)
     v_of_rho     :      0.82s CPU      0.87s WALL (       8 calls)
     newd         :      1.84s CPU      2.77s WALL (       8 calls)
     mix_rho      :      0.08s CPU      0.08s WALL (       6 calls)

     Called by c_bands:
     init_us_2    :      0.63s CPU      0.66s WALL (     294 calls)
     cegterg      :     11.36s CPU     11.48s WALL (     126 calls)

     Called by *egterg:
     cdiaghg      :      0.08s CPU      0.08s WALL (     560 calls)
     h_psi        :     10.42s CPU     10.52s WALL (     581 calls)
     s_psi        :      0.45s CPU      0.46s WALL (     581 calls)
     g_psi        :      0.05s CPU      0.05s WALL (     434 calls)

     Called by h_psi:
     h_psi:calbec :      0.49s CPU      0.50s WALL (     581 calls)
     vloc_psi     :      9.41s CPU      9.50s WALL (     581 calls)
     add_vuspsi   :      0.45s CPU      0.46s WALL (     581 calls)

     General routines
     calbec       :      0.72s CPU      0.72s WALL (     791 calls)
     fft          :      0.35s CPU      0.37s WALL (     114 calls)
     ffts         :      0.02s CPU      0.02s WALL (      14 calls)
     fftw         :      9.70s CPU      9.81s WALL (    8064 calls)
     interpolate  :      0.05s CPU      0.05s WALL (       8 calls)
     davcio       :      0.00s CPU      0.01s WALL (      21 calls)
 
     Parallel routines
 
     PWSCF        :     24.38s CPU     26.48s WALL

 
   This run was terminated on:  23:34:40   1Apr2021            

=------------------------------------------------------------------------------=
   JOB DONE.
=------------------------------------------------------------------------------=
