
     Program PWSCF v.6.6 starts on 31Mar2021 at 17: 8:59 

     This program is part of the open-source Quantum ESPRESSO suite
     for quantum simulation of materials; please cite
         "P. Giannozzi et al., J. Phys.:Condens. Matter 21 395502 (2009);
         "P. Giannozzi et al., J. Phys.:Condens. Matter 29 465901 (2017);
          URL http://www.quantum-espresso.org", 
     in publications or presentations arising from this work. More details at
     http://www.quantum-espresso.org/quote

     Parallel version (MPI), running on     1 processors

     MPI processes distributed on     1 nodes
     Fft bands division:     nmany     =       1
     Waiting for input...
     Reading input from standard input
Warning: card &CELL ignored
Warning: card   CELL_DYNAMICS='BFGS', ignored
Warning: card   CELL_DOFREE='ALL', ignored
Warning: card / ignored

     Current dimensions of program PWSCF are:
     Max number of different atomic species (ntypx) = 10
     Max number of k-points (npk) =  40000
     Max angular momentum in pseudopotentials (lmaxx) =  3

     File /home/jesus/Documentos/Nanociencia_DFT/silicano.update deleted, as requested

     File /home/jesus/Documentos/Nanociencia_DFT/silicano.bfgs deleted, as requested
     file H.pbe-kjpaw_psl.1.0.0.UPF: wavefunction(s)  1S renormalized

     Subspace diagonalization in iterative solution of the eigenvalue problem:
     a serial algorithm will be used

     Message from routine setup:
     using ibrav=0 with symmetry is DISCOURAGED, use correct ibrav instead
 
     G-vector sticks info
     --------------------
     sticks:   dense  smooth     PW     G-vecs:    dense   smooth      PW
     Sum         823     559    163                98865    53901    9413
 


     bravais-lattice index     =            0
     lattice parameter (alat)  =       7.5589  a.u.
     unit-cell volume          =    1923.9573 (a.u.)^3
     number of atoms/cell      =            4
     number of atomic types    =            2
     number of electrons       =        10.00
     number of Kohn-Sham states=            9
     kinetic-energy cutoff     =      35.0000  Ry
     charge density cutoff     =     210.0000  Ry
     convergence threshold     =      1.0E-06
     mixing beta               =       0.7000
     number of iterations used =            8  plain     mixing
     Exchange-correlation= SLA PW PBX PBC
                           (   1   4   3   4   0   0   0)
     nstep                     =            1


     celldm(1)=   7.558904  celldm(2)=   0.000000  celldm(3)=   0.000000
     celldm(4)=   0.000000  celldm(5)=   0.000000  celldm(6)=   0.000000

     crystal axes: (cart. coord. in units of alat)
               a(1) = (   0.500000   0.866000   0.000000 )  
               a(2) = (  -0.500000   0.866000   0.000000 )  
               a(3) = (   0.000000   0.000000   5.144000 )  

     reciprocal axes: (cart. coord. in units 2 pi/alat)
               b(1) = (  1.000000  0.577367  0.000000 )  
               b(2) = ( -1.000000  0.577367  0.000000 )  
               b(3) = (  0.000000  0.000000  0.194401 )  


     PseudoPot. # 1 for Si read from file:
     /home/jesus/Nanociencia_DFT/pseudopotenciales/Si.pbe-n-rrkjus_psl.1.0.0.UPF
     MD5 check sum: fa25574f73a70a4139f2adfbefec430c
     Pseudo is Ultrasoft + core correction, Zval =  4.0
     Generated using "atomic" code by A. Dal Corso v.6.3
     Using radial grid of 1141 points,  6 beta functions with: 
                l(1) =   0
                l(2) =   0
                l(3) =   1
                l(4) =   1
                l(5) =   2
                l(6) =   2
     Q(r) pseudized with 0 coefficients 


     PseudoPot. # 2 for H  read from file:
     /home/jesus/Nanociencia_DFT/pseudopotenciales/H.pbe-kjpaw_psl.1.0.0.UPF
     MD5 check sum: d81a744832360e4a8af0b0b5b123bc2a
     Pseudo is Projector augmented-wave, Zval =  1.0
     Generated using "atomic" code by A. Dal Corso v.6.3MaX
     Shape of augmentation charge: PSQ
     Using radial grid of  929 points,  2 beta functions with: 
                l(1) =   0
                l(2) =   0
     Q(r) pseudized with 0 coefficients 


     atomic species   valence    mass     pseudopotential
        Si             4.00    28.08550     Si( 1.00)
        H              1.00     1.00800     H ( 1.00)

      2 Sym. Ops. (no inversion) found



   Cartesian axes

     site n.     atom                  positions (alat units)
         1           H   tau(   1) = (   0.0000000   0.0000000   0.0000000  )
         2           Si  tau(   2) = (   0.0000000   0.0000000   0.3858000  )
         3           Si  tau(   3) = (   0.0000000   0.5767560   0.5709840  )
         4           H   tau(   4) = (   0.0000000   0.5767560   0.9567840  )

     number of k points=    21  Methfessel-Paxton smearing, width (Ry)=  0.0100
                       cart. coord. in units 2pi/alat
        k(    1) = (   0.0000000   0.0000000   0.0000000), wk =   0.0312500
        k(    2) = (  -0.1250000   0.0721709   0.0000000), wk =   0.1250000
        k(    3) = (  -0.2500000   0.1443418   0.0000000), wk =   0.1250000
        k(    4) = (  -0.3750000   0.2165127   0.0000000), wk =   0.1250000
        k(    5) = (   0.5000000  -0.2886836   0.0000000), wk =   0.0625000
        k(    6) = (   0.0000000   0.1443418   0.0000000), wk =   0.0625000
        k(    7) = (  -0.1250000   0.2165127   0.0000000), wk =   0.1250000
        k(    8) = (  -0.2500000   0.2886836   0.0000000), wk =   0.1250000
        k(    9) = (   0.6250000  -0.2165127   0.0000000), wk =   0.1250000
        k(   10) = (   0.5000000  -0.1443418   0.0000000), wk =   0.1250000
        k(   11) = (   0.3750000  -0.0721709   0.0000000), wk =   0.1250000
        k(   12) = (   0.2500000   0.0000000   0.0000000), wk =   0.0625000
        k(   13) = (   0.0000000   0.2886836   0.0000000), wk =   0.0625000
        k(   14) = (  -0.1250000   0.3608545   0.0000000), wk =   0.1250000
        k(   15) = (   0.7500000  -0.1443418   0.0000000), wk =   0.1250000
        k(   16) = (   0.6250000  -0.0721709   0.0000000), wk =   0.1250000
        k(   17) = (   0.5000000   0.0000000   0.0000000), wk =   0.0625000
        k(   18) = (   0.0000000   0.4330254   0.0000000), wk =   0.0625000
        k(   19) = (   0.8750000  -0.0721709   0.0000000), wk =   0.1250000
        k(   20) = (   0.7500000   0.0000000   0.0000000), wk =   0.0625000
        k(   21) = (   0.0000000  -0.5773672   0.0000000), wk =   0.0312500

     Dense  grid:    98865 G-vectors     FFT dimensions: (  36,  36, 180)

     Smooth grid:    53901 G-vectors     FFT dimensions: (  30,  30, 150)

     Estimated max dynamical RAM per process >     373.95 MB

     Initial potential from superposition of free atoms

     starting charge    9.99886, renormalised to   10.00000

     negative rho (up, down):  1.056E-04 0.000E+00
     Starting wfcs are   10 randomized atomic wfcs
     Checking if some PAW data can be deallocated... 

     total cpu time spent up to now is        3.6 secs

     Self-consistent Calculation

     iteration #  1     ecut=    35.00 Ry     beta= 0.70
     Davidson diagonalization with overlap
     ethr =  1.00E-02,  avg # of iterations =  2.9

     negative rho (up, down):  8.479E-05 0.000E+00

     total cpu time spent up to now is        9.3 secs

     total energy              =     -25.14547512 Ry
     estimated scf accuracy    <       0.14846458 Ry

     iteration #  2     ecut=    35.00 Ry     beta= 0.70
     Davidson diagonalization with overlap
     ethr =  1.48E-03,  avg # of iterations =  1.2

     negative rho (up, down):  9.837E-05 0.000E+00

     total cpu time spent up to now is       14.3 secs

     total energy              =     -25.15436388 Ry
     estimated scf accuracy    <       0.00504940 Ry

     iteration #  3     ecut=    35.00 Ry     beta= 0.70
     Davidson diagonalization with overlap
     c_bands:  1 eigenvalues not converged
     c_bands:  1 eigenvalues not converged
     ethr =  5.05E-05,  avg # of iterations =  8.3

     negative rho (up, down):  1.002E-04 0.000E+00

     total cpu time spent up to now is       21.7 secs

     total energy              =     -25.15528323 Ry
     estimated scf accuracy    <       0.00039654 Ry

     iteration #  4     ecut=    35.00 Ry     beta= 0.70
     Davidson diagonalization with overlap
     ethr =  3.97E-06,  avg # of iterations =  4.1

     negative rho (up, down):  1.039E-04 0.000E+00

     total cpu time spent up to now is       26.4 secs

     total energy              =     -25.15534927 Ry
     estimated scf accuracy    <       0.00003050 Ry

     iteration #  5     ecut=    35.00 Ry     beta= 0.70
     Davidson diagonalization with overlap
     ethr =  3.05E-07,  avg # of iterations =  1.6

     negative rho (up, down):  1.039E-04 0.000E+00

     total cpu time spent up to now is       31.0 secs

     total energy              =     -25.15535238 Ry
     estimated scf accuracy    <       0.00000863 Ry

     iteration #  6     ecut=    35.00 Ry     beta= 0.70
     Davidson diagonalization with overlap
     ethr =  8.63E-08,  avg # of iterations =  1.1

     negative rho (up, down):  1.040E-04 0.000E+00

     total cpu time spent up to now is       35.1 secs

     End of self-consistent calculation

          k = 0.0000 0.0000 0.0000 (  6679 PWs)   bands (ev):

   -13.4815  -9.0970  -5.9518  -3.5991  -3.5840  -1.5347   0.2385   0.2551
     0.5191

          k =-0.1250 0.0722 0.0000 (  6695 PWs)   bands (ev):

   -13.3236  -9.0761  -5.9541  -4.7022  -3.8742  -0.8344   0.2985   0.7468
     0.8016

          k =-0.2500 0.1443 0.0000 (  6724 PWs)   bands (ev):

   -12.8634  -9.1463  -6.1760  -5.9242  -4.3786  -1.0772   0.8295   1.1166
     1.9477

          k =-0.3750 0.2165 0.0000 (  6710 PWs)   bands (ev):

   -12.1690  -9.6601  -6.8288  -6.0674  -4.7591  -1.3617   0.4649   1.0271
     2.5830

          k = 0.5000-0.2887 0.0000 (  6756 PWs)   bands (ev):

   -11.6495 -10.2064  -6.9121  -6.1558  -4.8949  -1.4318   0.1313   1.0243
     2.6371

          k = 0.0000 0.1443 0.0000 (  6695 PWs)   bands (ev):

   -13.3234  -9.0763  -5.9544  -4.7100  -3.8649  -0.8322   0.3035   0.7473
     0.7914

          k =-0.1250 0.2165 0.0000 (  6697 PWs)   bands (ev):

   -13.0134  -9.0961  -5.9808  -5.6977  -4.4685  -0.1491   0.1467   0.9343
     1.4612

          k =-0.2500 0.2887 0.0000 (  6732 PWs)   bands (ev):

   -12.4251  -9.3904  -6.5490  -6.0637  -5.1127  -0.3470   0.8587   0.9942
     1.7234

          k = 0.6250-0.2165 0.0000 (  6738 PWs)   bands (ev):

   -11.7056 -10.0734  -6.8257  -6.1651  -5.4455  -0.4425   0.3413   1.0380
     1.9458

          k = 0.5000-0.1443 0.0000 (  6738 PWs)   bands (ev):

   -11.7065 -10.0718  -6.8260  -6.1639  -5.4475  -0.4416   0.3407   1.0385
     1.9449

          k = 0.3750-0.0722 0.0000 (  6732 PWs)   bands (ev):

   -12.4261  -9.3884  -6.5472  -6.0619  -5.1184  -0.3455   0.8593   0.9942
     1.7200

          k = 0.2500 0.0000 0.0000 (  6697 PWs)   bands (ev):

   -13.0140  -9.0953  -5.9802  -5.6903  -4.4784  -0.1437   0.1372   0.9360
     1.4604

          k = 0.0000 0.2887 0.0000 (  6724 PWs)   bands (ev):

   -12.8625  -9.1478  -6.1810  -5.9251  -4.3718  -1.0708   0.8294   1.1165
     1.9417

          k =-0.1250 0.3609 0.0000 (  6732 PWs)   bands (ev):

   -12.4242  -9.3923  -6.5516  -6.0635  -5.1099  -0.3408   0.8582   0.9947
     1.7206

          k = 0.7500-0.1443 0.0000 (  6745 PWs)   bands (ev):

   -11.7540  -9.9433  -6.5781  -6.3546  -5.8778   0.5828   0.7593   1.5073
     1.8581

          k = 0.6250-0.0722 0.0000 (  6761 PWs)   bands (ev):

   -11.1757 -10.4941  -6.6557  -6.2700  -6.2548   0.4690   1.0932   1.1873
     1.6113

          k = 0.5000 0.0000 0.0000 (  6745 PWs)   bands (ev):

   -11.7570  -9.9381  -6.5764  -6.3533  -5.8833   0.5844   0.7580   1.5065
     1.8614

          k = 0.0000 0.4330 0.0000 (  6710 PWs)   bands (ev):

   -12.1660  -9.6658  -6.8304  -6.0691  -4.7536  -1.3553   0.4660   1.0254
     2.5819

          k = 0.8750-0.0722 0.0000 (  6738 PWs)   bands (ev):

   -11.7010 -10.0807  -6.8263  -6.1666  -5.4413  -0.4362   0.3425   1.0362
     1.9457

          k = 0.7500 0.0000 0.0000 (  6761 PWs)   bands (ev):

   -11.1687 -10.5028  -6.6567  -6.2715  -6.2507   0.4697   1.0915   1.1882
     1.6175

          k = 0.0000-0.5774 0.0000 (  6756 PWs)   bands (ev):

   -11.6422 -10.2174  -6.9117  -6.1585  -4.8897  -1.4255   0.1329   1.0216
     2.6371

     the Fermi energy is    -3.4765 ev

!    total energy              =     -25.15535363 Ry
     estimated scf accuracy    <       0.00000049 Ry
     smearing contrib. (-TS)   =       0.00001901 Ry
     internal energy E=F+TS    =     -25.15537264 Ry

     The total energy is F=E-TS. E is the sum of the following terms:
     one-electron contribution =    -108.54882312 Ry
     hartree contribution      =      55.51662792 Ry
     xc contribution           =     -13.53543701 Ry
     ewald contribution        =      41.41254317 Ry
     one-center paw contrib.   =      -0.00028361 Ry

     convergence has been achieved in   6 iterations

     negative rho (up, down):  1.040E-04 0.000E+00

     Forces acting on atoms (cartesian axes, Ry/au):

     atom    1 type  2   force =     0.00000000   -0.00000693    0.02387091
     atom    2 type  1   force =     0.00000000   -0.00084841   -0.00376272
     atom    3 type  1   force =     0.00000000    0.00085328    0.00389093
     atom    4 type  2   force =     0.00000000    0.00000206   -0.02399912

     Total force =     0.034300     Total SCF correction =     0.000338

     BFGS Geometry Optimization

     number of scf cycles    =   1
     number of bfgs steps    =   0

     energy   new            =     -25.1553536324 Ry

     new trust radius        =       0.0239991220 bohr

     The maximum number of steps has been reached.

     End of BFGS Geometry Optimization

ATOMIC_POSITIONS (crystal)
H            -0.0000005292       -0.0000005292        0.0006139164
Si           -0.0000648037       -0.0000648037        0.0749032298
Si            0.3330651755        0.3330651755        0.1111000675
H             0.3330001574        0.3330001574        0.1853827863



     Writing output data file /home/jesus/Documentos/Nanociencia_DFT/silicano.save/
     NEW-OLD atomic charge density approx. for the potential

     negative rho (up, down):  1.048E-04 0.000E+00

     Writing output data file /home/jesus/Documentos/Nanociencia_DFT/silicano.save/
 
     init_run     :      2.43s CPU      2.67s WALL (       1 calls)
     electrons    :     29.82s CPU     31.51s WALL (       1 calls)
     update_pot   :      0.68s CPU      0.68s WALL (       1 calls)
     forces       :      1.08s CPU      1.20s WALL (       1 calls)

     Called by init_run:
     wfcinit      :      1.23s CPU      1.23s WALL (       1 calls)
     potinit      :      0.31s CPU      0.35s WALL (       1 calls)
     hinit0       :      0.57s CPU      0.59s WALL (       1 calls)

     Called by electrons:
     c_bands      :     21.78s CPU     21.84s WALL (       6 calls)
     sum_band     :      5.51s CPU      6.26s WALL (       6 calls)
     v_of_rho     :      0.91s CPU      0.96s WALL (       8 calls)
     newd         :      2.18s CPU      3.34s WALL (       8 calls)
     PAW_pot      :      0.01s CPU      0.01s WALL (       9 calls)
     mix_rho      :      0.11s CPU      0.11s WALL (       6 calls)

     Called by c_bands:
     init_us_2    :      0.83s CPU      0.84s WALL (     315 calls)
     cegterg      :     18.70s CPU     18.75s WALL (     126 calls)

     Called by *egterg:
     cdiaghg      :      0.09s CPU      0.09s WALL (     531 calls)
     h_psi        :     17.70s CPU     17.75s WALL (     552 calls)
     s_psi        :      0.58s CPU      0.59s WALL (     552 calls)
     g_psi        :      0.06s CPU      0.06s WALL (     405 calls)

     Called by h_psi:
     h_psi:calbec :      0.60s CPU      0.60s WALL (     552 calls)
     vloc_psi     :     16.42s CPU     16.47s WALL (     552 calls)
     add_vuspsi   :      0.59s CPU      0.60s WALL (     552 calls)

     General routines
     calbec       :      0.88s CPU      0.88s WALL (     783 calls)
     fft          :      0.40s CPU      0.42s WALL (     114 calls)
     ffts         :      0.03s CPU      0.03s WALL (      14 calls)
     fftw         :     15.82s CPU     15.88s WALL (    7978 calls)
     interpolate  :      0.06s CPU      0.06s WALL (       8 calls)
     davcio       :      0.00s CPU      0.01s WALL (      21 calls)
 
     Parallel routines
 
     PWSCF        :     35.28s CPU     37.54s WALL

 
   This run was terminated on:  17: 9:37  31Mar2021            

=------------------------------------------------------------------------------=
   JOB DONE.
=------------------------------------------------------------------------------=
