
     Program PWSCF v.6.6 starts on  1Apr2021 at 23: 0:27 

     This program is part of the open-source Quantum ESPRESSO suite
     for quantum simulation of materials; please cite
         "P. Giannozzi et al., J. Phys.:Condens. Matter 21 395502 (2009);
         "P. Giannozzi et al., J. Phys.:Condens. Matter 29 465901 (2017);
          URL http://www.quantum-espresso.org", 
     in publications or presentations arising from this work. More details at
     http://www.quantum-espresso.org/quote

     Parallel version (MPI), running on     1 processors

     MPI processes distributed on     1 nodes
     Fft bands division:     nmany     =       1
     Waiting for input...
     Reading input from standard input
Warning: card &CELL ignored
Warning: card   CELL_DYNAMICS='BFGS', ignored
Warning: card   CELL_DOFREE='ALL', ignored
Warning: card / ignored

     Current dimensions of program PWSCF are:
     Max number of different atomic species (ntypx) = 10
     Max number of k-points (npk) =  40000
     Max angular momentum in pseudopotentials (lmaxx) =  3

     File /home/jesus/Documentos/Nanociencia_DFT/silicano.update deleted, as requested

     File /home/jesus/Documentos/Nanociencia_DFT/silicano.bfgs deleted, as requested

     Subspace diagonalization in iterative solution of the eigenvalue problem:
     a serial algorithm will be used

     Message from routine setup:
     using ibrav=0 with symmetry is DISCOURAGED, use correct ibrav instead
 
     G-vector sticks info
     --------------------
     sticks:   dense  smooth     PW     G-vecs:    dense   smooth      PW
     Sum         769     517    163                91447    49847    8919
 


     bravais-lattice index     =            0
     lattice parameter (alat)  =       7.3699  a.u.
     unit-cell volume          =    1783.2379 (a.u.)^3
     number of atoms/cell      =            4
     number of atomic types    =            2
     number of electrons       =        10.00
     number of Kohn-Sham states=            9
     kinetic-energy cutoff     =      35.0000  Ry
     charge density cutoff     =     210.0000  Ry
     convergence threshold     =      1.0E-06
     mixing beta               =       0.7000
     number of iterations used =            8  plain     mixing
     Exchange-correlation= PBE
                           (   1   4   3   4   0   0   0)
     nstep                     =            1


     celldm(1)=   7.369932  celldm(2)=   0.000000  celldm(3)=   0.000000
     celldm(4)=   0.000000  celldm(5)=   0.000000  celldm(6)=   0.000000

     crystal axes: (cart. coord. in units of alat)
               a(1) = (   0.500000   0.866000   0.000000 )  
               a(2) = (  -0.500000   0.866000   0.000000 )  
               a(3) = (   0.000000   0.000000   5.144000 )  

     reciprocal axes: (cart. coord. in units 2 pi/alat)
               b(1) = (  1.000000  0.577367  0.000000 )  
               b(2) = ( -1.000000  0.577367  0.000000 )  
               b(3) = (  0.000000  0.000000  0.194401 )  


     PseudoPot. # 1 for Si read from file:
     /home/jesus/Nanociencia_DFT/pseudopotenciales/Si.pbe-n-rrkjus_psl.1.0.0.UPF
     MD5 check sum: fa25574f73a70a4139f2adfbefec430c
     Pseudo is Ultrasoft + core correction, Zval =  4.0
     Generated using "atomic" code by A. Dal Corso v.6.3
     Using radial grid of 1141 points,  6 beta functions with: 
                l(1) =   0
                l(2) =   0
                l(3) =   1
                l(4) =   1
                l(5) =   2
                l(6) =   2
     Q(r) pseudized with 0 coefficients 


     PseudoPot. # 2 for H  read from file:
     /home/jesus/Nanociencia_DFT/pseudopotenciales/H.pbe-rrkjus_psl.1.0.0.UPF
     MD5 check sum: 3f4114867bd07edc7f1424d066fc1888
     Pseudo is Ultrasoft, Zval =  1.0
     Generated using "atomic" code by A. Dal Corso v.6.3MaX
     Using radial grid of  929 points,  2 beta functions with: 
                l(1) =   0
                l(2) =   0
     Q(r) pseudized with 0 coefficients 


     atomic species   valence    mass     pseudopotential
        Si             4.00    28.08550     Si( 1.00)
        H              1.00     1.00800     H ( 1.00)

      2 Sym. Ops. (no inversion) found



   Cartesian axes

     site n.     atom                  positions (alat units)
         1           H   tau(   1) = (   0.0000000   0.0000000   0.0000000  )
         2           Si  tau(   2) = (   0.0000000   0.0000000   0.3858000  )
         3           Si  tau(   3) = (   0.0000000   0.5767560   0.5709840  )
         4           H   tau(   4) = (   0.0000000   0.5767560   0.9567840  )

     number of k points=    21  Methfessel-Paxton smearing, width (Ry)=  0.0100
                       cart. coord. in units 2pi/alat
        k(    1) = (   0.0000000   0.0000000   0.0000000), wk =   0.0312500
        k(    2) = (  -0.1250000   0.0721709   0.0000000), wk =   0.1250000
        k(    3) = (  -0.2500000   0.1443418   0.0000000), wk =   0.1250000
        k(    4) = (  -0.3750000   0.2165127   0.0000000), wk =   0.1250000
        k(    5) = (   0.5000000  -0.2886836   0.0000000), wk =   0.0625000
        k(    6) = (   0.0000000   0.1443418   0.0000000), wk =   0.0625000
        k(    7) = (  -0.1250000   0.2165127   0.0000000), wk =   0.1250000
        k(    8) = (  -0.2500000   0.2886836   0.0000000), wk =   0.1250000
        k(    9) = (   0.6250000  -0.2165127   0.0000000), wk =   0.1250000
        k(   10) = (   0.5000000  -0.1443418   0.0000000), wk =   0.1250000
        k(   11) = (   0.3750000  -0.0721709   0.0000000), wk =   0.1250000
        k(   12) = (   0.2500000   0.0000000   0.0000000), wk =   0.0625000
        k(   13) = (   0.0000000   0.2886836   0.0000000), wk =   0.0625000
        k(   14) = (  -0.1250000   0.3608545   0.0000000), wk =   0.1250000
        k(   15) = (   0.7500000  -0.1443418   0.0000000), wk =   0.1250000
        k(   16) = (   0.6250000  -0.0721709   0.0000000), wk =   0.1250000
        k(   17) = (   0.5000000   0.0000000   0.0000000), wk =   0.0625000
        k(   18) = (   0.0000000   0.4330254   0.0000000), wk =   0.0625000
        k(   19) = (   0.8750000  -0.0721709   0.0000000), wk =   0.1250000
        k(   20) = (   0.7500000   0.0000000   0.0000000), wk =   0.0625000
        k(   21) = (   0.0000000  -0.5773672   0.0000000), wk =   0.0312500

     Dense  grid:    91447 G-vectors     FFT dimensions: (  36,  36, 180)

     Smooth grid:    49847 G-vectors     FFT dimensions: (  27,  27, 144)

     Estimated max dynamical RAM per process >     347.31 MB

     Initial potential from superposition of free atoms

     starting charge    9.99886, renormalised to   10.00000

     negative rho (up, down):  1.007E-04 0.000E+00
     Starting wfcs are   10 randomized atomic wfcs

     total cpu time spent up to now is        3.2 secs

     Self-consistent Calculation

     iteration #  1     ecut=    35.00 Ry     beta= 0.70
     Davidson diagonalization with overlap
     ethr =  1.00E-02,  avg # of iterations =  3.1

     negative rho (up, down):  8.189E-05 0.000E+00

     total cpu time spent up to now is        7.4 secs

     total energy              =     -25.15080094 Ry
     estimated scf accuracy    <       0.16348952 Ry

     iteration #  2     ecut=    35.00 Ry     beta= 0.70
     Davidson diagonalization with overlap
     ethr =  1.63E-03,  avg # of iterations =  1.6

     negative rho (up, down):  9.695E-05 0.000E+00

     total cpu time spent up to now is       10.7 secs

     total energy              =     -25.16057917 Ry
     estimated scf accuracy    <       0.00469612 Ry

     iteration #  3     ecut=    35.00 Ry     beta= 0.70
     Davidson diagonalization with overlap
     ethr =  4.70E-05,  avg # of iterations =  8.7

     negative rho (up, down):  9.899E-05 0.000E+00

     total cpu time spent up to now is       15.8 secs

     total energy              =     -25.16137896 Ry
     estimated scf accuracy    <       0.00027658 Ry

     iteration #  4     ecut=    35.00 Ry     beta= 0.70
     Davidson diagonalization with overlap
     ethr =  2.77E-06,  avg # of iterations =  4.5

     negative rho (up, down):  1.023E-04 0.000E+00

     total cpu time spent up to now is       19.8 secs

     total energy              =     -25.16142479 Ry
     estimated scf accuracy    <       0.00002447 Ry

     iteration #  5     ecut=    35.00 Ry     beta= 0.70
     Davidson diagonalization with overlap
     ethr =  2.45E-07,  avg # of iterations =  1.7

     negative rho (up, down):  1.023E-04 0.000E+00

     total cpu time spent up to now is       22.9 secs

     total energy              =     -25.16142754 Ry
     estimated scf accuracy    <       0.00000109 Ry

     iteration #  6     ecut=    35.00 Ry     beta= 0.70
     Davidson diagonalization with overlap
     ethr =  1.09E-08,  avg # of iterations =  2.0

     negative rho (up, down):  1.025E-04 0.000E+00

     total cpu time spent up to now is       26.4 secs

     End of self-consistent calculation

          k = 0.0000 0.0000 0.0000 (  6161 PWs)   bands (ev):

   -13.6749  -9.1346  -5.8832  -3.4107  -3.3953  -1.0970   0.5069   0.5236
     0.7642

          k =-0.1250 0.0722 0.0000 (  6190 PWs)   bands (ev):

   -13.5062  -9.0963  -5.8830  -4.5494  -3.7118  -0.4961   0.5590   1.0585
     1.1192

          k =-0.2500 0.1443 0.0000 (  6218 PWs)   bands (ev):

   -13.0137  -9.1173  -6.1412  -5.8449  -4.2559  -0.8359   1.0844   1.3571
     2.3577

          k =-0.3750 0.2165 0.0000 (  6256 PWs)   bands (ev):

   -12.2662  -9.6190  -6.8645  -5.9978  -4.6627  -1.1440   0.6317   1.3176
     2.9708

          k = 0.5000-0.2887 0.0000 (  6258 PWs)   bands (ev):

   -11.6971 -10.2114  -6.9431  -6.0981  -4.8073  -1.2172   0.2765   1.3010
     2.9897

          k = 0.0000 0.1443 0.0000 (  6190 PWs)   bands (ev):

   -13.5060  -9.0965  -5.8832  -4.5573  -3.7024  -0.4932   0.5631   1.0588
     1.1090

          k =-0.1250 0.2165 0.0000 (  6207 PWs)   bands (ev):

   -13.1745  -9.0817  -5.9086  -5.6104  -4.3639   0.1607   0.4135   1.2558
     1.6265

          k =-0.2500 0.2887 0.0000 (  6241 PWs)   bands (ev):

   -12.5434  -9.3352  -6.5547  -5.9973  -5.0544  -0.0817   1.0942   1.2625
     2.0214

          k = 0.6250-0.2165 0.0000 (  6243 PWs)   bands (ev):

   -11.7642 -10.0511  -6.8558  -6.1080  -5.4089  -0.1725   0.5054   1.3148
     2.2401

          k = 0.5000-0.1443 0.0000 (  6243 PWs)   bands (ev):

   -11.7652 -10.0495  -6.8561  -6.1066  -5.4109  -0.1714   0.5044   1.3150
     2.2396

          k = 0.3750-0.0722 0.0000 (  6241 PWs)   bands (ev):

   -12.5443  -9.3333  -6.5529  -5.9954  -5.0601  -0.0801   1.0960   1.2602
     2.0196

          k = 0.2500 0.0000 0.0000 (  6207 PWs)   bands (ev):

   -13.1750  -9.0809  -5.9079  -5.6028  -4.3740   0.1655   0.4042   1.2580
     1.6257

          k = 0.0000 0.2887 0.0000 (  6218 PWs)   bands (ev):

   -13.0128  -9.1187  -6.1461  -5.8460  -4.2491  -0.8295   1.0844   1.3563
     2.3535

          k =-0.1250 0.3609 0.0000 (  6241 PWs)   bands (ev):

   -12.5425  -9.3370  -6.5572  -5.9971  -5.0516  -0.0755   1.0945   1.2609
     2.0200

          k = 0.7500-0.1443 0.0000 (  6257 PWs)   bands (ev):

   -11.8215  -9.8936  -6.5769  -6.3643  -5.8463   0.7405   1.0200   1.7869
     2.1403

          k = 0.6250-0.0722 0.0000 (  6243 PWs)   bands (ev):

   -11.1950 -10.4796  -6.6981  -6.2664  -6.2219   0.6048   1.3664   1.4377
     2.0112

          k = 0.5000 0.0000 0.0000 (  6257 PWs)   bands (ev):

   -11.8244  -9.8884  -6.5752  -6.3638  -5.8510   0.7418   1.0196   1.7836
     2.1321

          k = 0.0000 0.4330 0.0000 (  6256 PWs)   bands (ev):

   -12.2633  -9.6246  -6.8659  -5.9997  -4.6572  -1.1378   0.6329   1.3153
     2.9702

          k = 0.8750-0.0722 0.0000 (  6243 PWs)   bands (ev):

   -11.7597 -10.0585  -6.8560  -6.1096  -5.4047  -0.1662   0.5067   1.3120
     2.2404

          k = 0.7500 0.0000 0.0000 (  6243 PWs)   bands (ev):

   -11.1880 -10.4885  -6.6985  -6.2623  -6.2239   0.6057   1.3650   1.4386
     2.0165

          k = 0.0000-0.5774 0.0000 (  6258 PWs)   bands (ev):

   -11.6897 -10.2225  -6.9421  -6.1012  -4.8021  -1.2112   0.2784   1.2976
     2.9900

     the Fermi energy is    -3.2877 ev

!    total energy              =     -25.16142769 Ry
     estimated scf accuracy    <       0.00000024 Ry
     smearing contrib. (-TS)   =       0.00001858 Ry
     internal energy E=F+TS    =     -25.16144628 Ry

     The total energy is F=E-TS. E is the sum of the following terms:
     one-electron contribution =    -110.61855787 Ry
     hartree contribution      =      56.61691040 Ry
     xc contribution           =     -13.63420207 Ry
     ewald contribution        =      42.47440325 Ry

     convergence has been achieved in   6 iterations

     negative rho (up, down):  1.025E-04 0.000E+00

     Forces acting on atoms (cartesian axes, Ry/au):

     atom    1 type  2   force =     0.00000000   -0.00000879    0.00135389
     atom    2 type  1   force =     0.00000000   -0.00101051    0.00114952
     atom    3 type  1   force =     0.00000000    0.00101046   -0.00089309
     atom    4 type  2   force =     0.00000000    0.00000884   -0.00161032

     Total force =     0.002930     Total SCF correction =     0.000910
     SCF correction compared to forces is large: reduce conv_thr to get better values

     BFGS Geometry Optimization

     number of scf cycles    =   1
     number of bfgs steps    =   0

     energy   new            =     -25.1614276949 Ry

     new trust radius        =       0.0016103436 bohr

     The maximum number of steps has been reached.

     End of BFGS Geometry Optimization

ATOMIC_POSITIONS (crystal)
H            -0.0000006882       -0.0000006882        0.0000357124
Si           -0.0000791646       -0.0000791646        0.0750303217
Si            0.3330791601        0.3330791601        0.1109764423
H             0.3330006928        0.3330006928        0.1859575236



     Writing output data file /home/jesus/Documentos/Nanociencia_DFT/silicano.save/
     NEW-OLD atomic charge density approx. for the potential

     negative rho (up, down):  1.026E-04 0.000E+00

     Writing output data file /home/jesus/Documentos/Nanociencia_DFT/silicano.save/
 
     init_run     :      2.02s CPU      2.27s WALL (       1 calls)
     electrons    :     21.68s CPU     23.16s WALL (       1 calls)
     update_pot   :      0.61s CPU      0.61s WALL (       1 calls)
     forces       :      0.92s CPU      1.05s WALL (       1 calls)

     Called by init_run:
     wfcinit      :      0.85s CPU      0.87s WALL (       1 calls)
     potinit      :      0.28s CPU      0.31s WALL (       1 calls)
     hinit0       :      0.62s CPU      0.64s WALL (       1 calls)

     Called by electrons:
     c_bands      :     15.32s CPU     15.36s WALL (       6 calls)
     sum_band     :      4.20s CPU      4.87s WALL (       6 calls)
     v_of_rho     :      0.87s CPU      0.93s WALL (       8 calls)
     newd         :      1.80s CPU      2.81s WALL (       8 calls)
     mix_rho      :      0.09s CPU      0.09s WALL (       6 calls)

     Called by c_bands:
     init_us_2    :      0.66s CPU      0.67s WALL (     294 calls)
     cegterg      :     12.79s CPU     12.81s WALL (     126 calls)

     Called by *egterg:
     cdiaghg      :      0.09s CPU      0.09s WALL (     579 calls)
     h_psi        :     11.76s CPU     11.79s WALL (     600 calls)
     s_psi        :      0.46s CPU      0.47s WALL (     600 calls)
     g_psi        :      0.05s CPU      0.05s WALL (     453 calls)

     Called by h_psi:
     h_psi:calbec :      0.51s CPU      0.51s WALL (     600 calls)
     vloc_psi     :     10.71s CPU     10.74s WALL (     600 calls)
     add_vuspsi   :      0.47s CPU      0.47s WALL (     600 calls)

     General routines
     calbec       :      0.73s CPU      0.74s WALL (     810 calls)
     fft          :      0.37s CPU      0.39s WALL (     114 calls)
     ffts         :      0.02s CPU      0.02s WALL (      14 calls)
     fftw         :     10.86s CPU     10.90s WALL (    8218 calls)
     interpolate  :      0.05s CPU      0.05s WALL (       8 calls)
     davcio       :      0.00s CPU      0.03s WALL (      21 calls)
 
     Parallel routines
 
     PWSCF        :     26.35s CPU     28.45s WALL

 
   This run was terminated on:  23: 0:55   1Apr2021            

=------------------------------------------------------------------------------=
   JOB DONE.
=------------------------------------------------------------------------------=
