
     Program PWSCF v.6.6 starts on  1Apr2021 at 23: 2:42 

     This program is part of the open-source Quantum ESPRESSO suite
     for quantum simulation of materials; please cite
         "P. Giannozzi et al., J. Phys.:Condens. Matter 21 395502 (2009);
         "P. Giannozzi et al., J. Phys.:Condens. Matter 29 465901 (2017);
          URL http://www.quantum-espresso.org", 
     in publications or presentations arising from this work. More details at
     http://www.quantum-espresso.org/quote

     Parallel version (MPI), running on     1 processors

     MPI processes distributed on     1 nodes
     Fft bands division:     nmany     =       1
     Waiting for input...
     Reading input from standard input
Warning: card &CELL ignored
Warning: card   CELL_DYNAMICS='BFGS', ignored
Warning: card   CELL_DOFREE='ALL', ignored
Warning: card / ignored

     Current dimensions of program PWSCF are:
     Max number of different atomic species (ntypx) = 10
     Max number of k-points (npk) =  40000
     Max angular momentum in pseudopotentials (lmaxx) =  3

     File /home/jesus/Documentos/Nanociencia_DFT/silicano.update deleted, as requested

     File /home/jesus/Documentos/Nanociencia_DFT/silicano.bfgs deleted, as requested

     Subspace diagonalization in iterative solution of the eigenvalue problem:
     a serial algorithm will be used

     Message from routine setup:
     using ibrav=0 with symmetry is DISCOURAGED, use correct ibrav instead
 
     G-vector sticks info
     --------------------
     sticks:   dense  smooth     PW     G-vecs:    dense   smooth      PW
     Sum         955     649    199               122911    66937   11657
 


     bravais-lattice index     =            0
     lattice parameter (alat)  =       8.1258  a.u.
     unit-cell volume          =    2390.1261 (a.u.)^3
     number of atoms/cell      =            4
     number of atomic types    =            2
     number of electrons       =        10.00
     number of Kohn-Sham states=            9
     kinetic-energy cutoff     =      35.0000  Ry
     charge density cutoff     =     210.0000  Ry
     convergence threshold     =      1.0E-06
     mixing beta               =       0.7000
     number of iterations used =            8  plain     mixing
     Exchange-correlation= PBE
                           (   1   4   3   4   0   0   0)
     nstep                     =            1


     celldm(1)=   8.125822  celldm(2)=   0.000000  celldm(3)=   0.000000
     celldm(4)=   0.000000  celldm(5)=   0.000000  celldm(6)=   0.000000

     crystal axes: (cart. coord. in units of alat)
               a(1) = (   0.500000   0.866000   0.000000 )  
               a(2) = (  -0.500000   0.866000   0.000000 )  
               a(3) = (   0.000000   0.000000   5.144000 )  

     reciprocal axes: (cart. coord. in units 2 pi/alat)
               b(1) = (  1.000000  0.577367  0.000000 )  
               b(2) = ( -1.000000  0.577367  0.000000 )  
               b(3) = (  0.000000  0.000000  0.194401 )  


     PseudoPot. # 1 for Si read from file:
     /home/jesus/Nanociencia_DFT/pseudopotenciales/Si.pbe-n-rrkjus_psl.1.0.0.UPF
     MD5 check sum: fa25574f73a70a4139f2adfbefec430c
     Pseudo is Ultrasoft + core correction, Zval =  4.0
     Generated using "atomic" code by A. Dal Corso v.6.3
     Using radial grid of 1141 points,  6 beta functions with: 
                l(1) =   0
                l(2) =   0
                l(3) =   1
                l(4) =   1
                l(5) =   2
                l(6) =   2
     Q(r) pseudized with 0 coefficients 


     PseudoPot. # 2 for H  read from file:
     /home/jesus/Nanociencia_DFT/pseudopotenciales/H.pbe-rrkjus_psl.1.0.0.UPF
     MD5 check sum: 3f4114867bd07edc7f1424d066fc1888
     Pseudo is Ultrasoft, Zval =  1.0
     Generated using "atomic" code by A. Dal Corso v.6.3MaX
     Using radial grid of  929 points,  2 beta functions with: 
                l(1) =   0
                l(2) =   0
     Q(r) pseudized with 0 coefficients 


     atomic species   valence    mass     pseudopotential
        Si             4.00    28.08550     Si( 1.00)
        H              1.00     1.00800     H ( 1.00)

      2 Sym. Ops. (no inversion) found



   Cartesian axes

     site n.     atom                  positions (alat units)
         1           H   tau(   1) = (   0.0000000   0.0000000   0.0000000  )
         2           Si  tau(   2) = (   0.0000000   0.0000000   0.3858000  )
         3           Si  tau(   3) = (   0.0000000   0.5767560   0.5709840  )
         4           H   tau(   4) = (   0.0000000   0.5767560   0.9567840  )

     number of k points=    21  Methfessel-Paxton smearing, width (Ry)=  0.0100
                       cart. coord. in units 2pi/alat
        k(    1) = (   0.0000000   0.0000000   0.0000000), wk =   0.0312500
        k(    2) = (  -0.1250000   0.0721709   0.0000000), wk =   0.1250000
        k(    3) = (  -0.2500000   0.1443418   0.0000000), wk =   0.1250000
        k(    4) = (  -0.3750000   0.2165127   0.0000000), wk =   0.1250000
        k(    5) = (   0.5000000  -0.2886836   0.0000000), wk =   0.0625000
        k(    6) = (   0.0000000   0.1443418   0.0000000), wk =   0.0625000
        k(    7) = (  -0.1250000   0.2165127   0.0000000), wk =   0.1250000
        k(    8) = (  -0.2500000   0.2886836   0.0000000), wk =   0.1250000
        k(    9) = (   0.6250000  -0.2165127   0.0000000), wk =   0.1250000
        k(   10) = (   0.5000000  -0.1443418   0.0000000), wk =   0.1250000
        k(   11) = (   0.3750000  -0.0721709   0.0000000), wk =   0.1250000
        k(   12) = (   0.2500000   0.0000000   0.0000000), wk =   0.0625000
        k(   13) = (   0.0000000   0.2886836   0.0000000), wk =   0.0625000
        k(   14) = (  -0.1250000   0.3608545   0.0000000), wk =   0.1250000
        k(   15) = (   0.7500000  -0.1443418   0.0000000), wk =   0.1250000
        k(   16) = (   0.6250000  -0.0721709   0.0000000), wk =   0.1250000
        k(   17) = (   0.5000000   0.0000000   0.0000000), wk =   0.0625000
        k(   18) = (   0.0000000   0.4330254   0.0000000), wk =   0.0625000
        k(   19) = (   0.8750000  -0.0721709   0.0000000), wk =   0.1250000
        k(   20) = (   0.7500000   0.0000000   0.0000000), wk =   0.0625000
        k(   21) = (   0.0000000  -0.5773672   0.0000000), wk =   0.0312500

     Dense  grid:   122911 G-vectors     FFT dimensions: (  40,  40, 200)

     Smooth grid:    66937 G-vectors     FFT dimensions: (  32,  32, 160)

     Estimated max dynamical RAM per process >     466.37 MB

     Initial potential from superposition of free atoms

     starting charge    9.99886, renormalised to   10.00000

     negative rho (up, down):  1.269E-04 0.000E+00
     Starting wfcs are   10 randomized atomic wfcs

     total cpu time spent up to now is        3.8 secs

     Self-consistent Calculation

     iteration #  1     ecut=    35.00 Ry     beta= 0.70
     Davidson diagonalization with overlap
     ethr =  1.00E-02,  avg # of iterations =  2.7

     negative rho (up, down):  9.256E-05 0.000E+00

     total cpu time spent up to now is        8.7 secs

     total energy              =     -25.07968762 Ry
     estimated scf accuracy    <       0.11729463 Ry

     iteration #  2     ecut=    35.00 Ry     beta= 0.70
     Davidson diagonalization with overlap
     ethr =  1.17E-03,  avg # of iterations =  2.0

     negative rho (up, down):  1.037E-04 0.000E+00

     total cpu time spent up to now is       12.8 secs

     total energy              =     -25.08876208 Ry
     estimated scf accuracy    <       0.00868253 Ry

     iteration #  3     ecut=    35.00 Ry     beta= 0.70
     Davidson diagonalization with overlap
     ethr =  8.68E-05,  avg # of iterations =  5.6

     negative rho (up, down):  1.077E-04 0.000E+00

     total cpu time spent up to now is       18.2 secs

     total energy              =     -25.09051896 Ry
     estimated scf accuracy    <       0.00142205 Ry

     iteration #  4     ecut=    35.00 Ry     beta= 0.70
     Davidson diagonalization with overlap
     ethr =  1.42E-05,  avg # of iterations =  3.2

     negative rho (up, down):  1.107E-04 0.000E+00

     total cpu time spent up to now is       22.7 secs

     total energy              =     -25.09073419 Ry
     estimated scf accuracy    <       0.00002293 Ry

     iteration #  5     ecut=    35.00 Ry     beta= 0.70
     Davidson diagonalization with overlap
     ethr =  2.29E-07,  avg # of iterations =  4.2

     negative rho (up, down):  1.107E-04 0.000E+00

     total cpu time spent up to now is       27.8 secs

     total energy              =     -25.09074054 Ry
     estimated scf accuracy    <       0.00000818 Ry

     iteration #  6     ecut=    35.00 Ry     beta= 0.70
     Davidson diagonalization with overlap
     ethr =  8.18E-08,  avg # of iterations =  1.2

     negative rho (up, down):  1.108E-04 0.000E+00

     total cpu time spent up to now is       31.8 secs

     total energy              =     -25.09074119 Ry
     estimated scf accuracy    <       0.00000125 Ry

     iteration #  7     ecut=    35.00 Ry     beta= 0.70
     Davidson diagonalization with overlap
     ethr =  1.25E-08,  avg # of iterations =  2.0

     negative rho (up, down):  1.107E-04 0.000E+00

     total cpu time spent up to now is       36.0 secs

     End of self-consistent calculation

          k = 0.0000 0.0000 0.0000 (  8425 PWs)   bands (ev):

   -12.9704  -9.0406  -6.1082  -4.0291  -4.0150  -2.8835  -0.4774  -0.4611
    -0.2025

          k =-0.1250 0.0722 0.0000 (  8381 PWs)   bands (ev):

   -12.8407  -9.0673  -6.1143  -5.0740  -4.2412  -1.9584  -0.4652  -0.1166
    -0.0378

          k =-0.2500 0.1443 0.0000 (  8365 PWs)   bands (ev):

   -12.4648  -9.2548  -6.2407  -6.0913  -4.6450  -1.8193   0.0495   0.2709
     0.8692

          k =-0.3750 0.2165 0.0000 (  8350 PWs)   bands (ev):

   -11.9063  -9.7736  -6.7162  -6.2127  -4.9570  -2.0243  -0.1061   0.2987
     1.5061

          k = 0.5000-0.2887 0.0000 (  8342 PWs)   bands (ev):

   -11.5059 -10.2098  -6.8009  -6.2729  -5.0694  -2.0907  -0.3154   0.2975
     1.6415

          k = 0.0000 0.1443 0.0000 (  8381 PWs)   bands (ev):

   -12.8405  -9.0677  -6.1145  -5.0809  -4.2324  -1.9585  -0.4571  -0.1168
    -0.0481

          k =-0.1250 0.2165 0.0000 (  8397 PWs)   bands (ev):

   -12.5867  -9.1740  -6.1399  -5.8851  -4.6962  -1.2133  -0.5656   0.0133
     0.9077

          k =-0.2500 0.2887 0.0000 (  8361 PWs)   bands (ev):

   -12.1089  -9.5444  -6.5110  -6.2041  -5.2185  -1.1702   0.0518   0.1812
     0.9389

          k = 0.6250-0.2165 0.0000 (  8339 PWs)   bands (ev):

   -11.5384 -10.1348  -6.7246  -6.2804  -5.4957  -1.2833  -0.1772   0.3389
     1.1183

          k = 0.5000-0.1443 0.0000 (  8339 PWs)   bands (ev):

   -11.5394 -10.1333  -6.7246  -6.2795  -5.4975  -1.2827  -0.1770   0.3400
     1.1168

          k = 0.3750-0.0722 0.0000 (  8361 PWs)   bands (ev):

   -12.1099  -9.5423  -6.5091  -6.2026  -5.2239  -1.1681   0.0522   0.1822
     0.9333

          k = 0.2500 0.0000 0.0000 (  8397 PWs)   bands (ev):

   -12.5874  -9.1728  -6.1393  -5.8787  -4.7054  -1.2082  -0.5754   0.0135
     0.9121

          k = 0.0000 0.2887 0.0000 (  8365 PWs)   bands (ev):

   -12.4638  -9.2568  -6.2451  -6.0923  -4.6384  -1.8134   0.0493   0.2735
     0.8628

          k =-0.1250 0.3609 0.0000 (  8361 PWs)   bands (ev):

   -12.1079  -9.5464  -6.5135  -6.2038  -5.2157  -1.1641   0.0524   0.1813
     0.9336

          k = 0.7500-0.1443 0.0000 (  8328 PWs)   bands (ev):

   -11.5671 -10.0626  -6.5560  -6.3558  -5.8694  -0.0370   0.0393   0.1977
     0.9438

          k = 0.6250-0.0722 0.0000 (  8352 PWs)   bands (ev):

   -11.1077 -10.5222  -6.5711  -6.3587  -6.1468  -0.0043   0.0262   0.4865
     0.7470

          k = 0.5000 0.0000 0.0000 (  8328 PWs)   bands (ev):

   -11.5702 -10.0575  -6.5542  -6.3536  -5.8756  -0.0408   0.0398   0.2059
     0.9372

          k = 0.0000 0.4330 0.0000 (  8350 PWs)   bands (ev):

   -11.9031  -9.7795  -6.7186  -6.2138  -4.9517  -2.0176  -0.1057   0.2991
     1.5037

          k = 0.8750-0.0722 0.0000 (  8339 PWs)   bands (ev):

   -11.5338 -10.1419  -6.7260  -6.2813  -5.4915  -1.2775  -0.1764   0.3397
     1.1172

          k = 0.7500 0.0000 0.0000 (  8352 PWs)   bands (ev):

   -11.1009 -10.5304  -6.5729  -6.3596  -6.1428  -0.0036   0.0259   0.4867
     0.7516

          k = 0.0000-0.5774 0.0000 (  8342 PWs)   bands (ev):

   -11.4988 -10.2203  -6.8017  -6.2747  -5.0644  -2.0840  -0.3146   0.2971
     1.6405

     the Fermi energy is    -3.9099 ev

!    total energy              =     -25.09074149 Ry
     estimated scf accuracy    <       0.00000003 Ry
     smearing contrib. (-TS)   =       0.00002403 Ry
     internal energy E=F+TS    =     -25.09076552 Ry

     The total energy is F=E-TS. E is the sum of the following terms:
     one-electron contribution =    -102.81585670 Ry
     hartree contribution      =      52.47865833 Ry
     xc contribution           =     -13.27686312 Ry
     ewald contribution        =      38.52329597 Ry

     convergence has been achieved in   7 iterations

     negative rho (up, down):  1.107E-04 0.000E+00

     Forces acting on atoms (cartesian axes, Ry/au):

     atom    1 type  2   force =     0.00000000    0.00001065    0.07011031
     atom    2 type  1   force =     0.00000000   -0.00050094   -0.01780025
     atom    3 type  1   force =     0.00000000    0.00050068    0.01773573
     atom    4 type  2   force =     0.00000000   -0.00001040   -0.07004580

     Total force =     0.102244     Total SCF correction =     0.000101

     BFGS Geometry Optimization

     number of scf cycles    =   1
     number of bfgs steps    =   0

     energy   new            =     -25.0907414916 Ry

     new trust radius        =       0.0701103141 bohr

     The maximum number of steps has been reached.

     End of BFGS Geometry Optimization

ATOMIC_POSITIONS (crystal)
H             0.0000007568        0.0000007568        0.0016773111
Si           -0.0000355935       -0.0000355935        0.0745741489
Si            0.3330355754        0.3330355754        0.1114243076
H             0.3329992613        0.3329992613        0.1843242324



     Writing output data file /home/jesus/Documentos/Nanociencia_DFT/silicano.save/
     NEW-OLD atomic charge density approx. for the potential

     negative rho (up, down):  1.130E-04 0.000E+00

     Writing output data file /home/jesus/Documentos/Nanociencia_DFT/silicano.save/
 
     init_run     :      2.53s CPU      2.86s WALL (       1 calls)
     electrons    :     29.90s CPU     32.22s WALL (       1 calls)
     update_pot   :      0.75s CPU      0.75s WALL (       1 calls)
     forces       :      1.22s CPU      1.38s WALL (       1 calls)

     Called by init_run:
     wfcinit      :      1.04s CPU      1.05s WALL (       1 calls)
     potinit      :      0.37s CPU      0.44s WALL (       1 calls)
     hinit0       :      0.66s CPU      0.72s WALL (       1 calls)

     Called by electrons:
     c_bands      :     20.48s CPU     20.57s WALL (       7 calls)
     sum_band     :      6.12s CPU      7.15s WALL (       7 calls)
     v_of_rho     :      1.24s CPU      1.32s WALL (       9 calls)
     newd         :      2.76s CPU      4.18s WALL (       9 calls)
     mix_rho      :      0.14s CPU      0.14s WALL (       7 calls)

     Called by c_bands:
     init_us_2    :      0.99s CPU      1.00s WALL (     336 calls)
     cegterg      :     16.54s CPU     16.63s WALL (     147 calls)

     Called by *egterg:
     cdiaghg      :      0.09s CPU      0.09s WALL (     585 calls)
     h_psi        :     15.01s CPU     15.09s WALL (     606 calls)
     s_psi        :      0.69s CPU      0.69s WALL (     606 calls)
     g_psi        :      0.07s CPU      0.07s WALL (     438 calls)

     Called by h_psi:
     h_psi:calbec :      0.72s CPU      0.72s WALL (     606 calls)
     vloc_psi     :     13.51s CPU     13.59s WALL (     606 calls)
     add_vuspsi   :      0.68s CPU      0.69s WALL (     606 calls)

     General routines
     calbec       :      1.05s CPU      1.05s WALL (     837 calls)
     fft          :      0.53s CPU      0.59s WALL (     127 calls)
     ffts         :      0.03s CPU      0.05s WALL (      16 calls)
     fftw         :     13.21s CPU     13.28s WALL (    8931 calls)
     interpolate  :      0.08s CPU      0.10s WALL (       9 calls)
     davcio       :      0.00s CPU      0.12s WALL (      21 calls)
 
     Parallel routines
 
     PWSCF        :     35.58s CPU     38.79s WALL

 
   This run was terminated on:  23: 3:21   1Apr2021            

=------------------------------------------------------------------------------=
   JOB DONE.
=------------------------------------------------------------------------------=
