
     Program PWSCF v.6.6 starts on 31Mar2021 at 17: 7: 0 

     This program is part of the open-source Quantum ESPRESSO suite
     for quantum simulation of materials; please cite
         "P. Giannozzi et al., J. Phys.:Condens. Matter 21 395502 (2009);
         "P. Giannozzi et al., J. Phys.:Condens. Matter 29 465901 (2017);
          URL http://www.quantum-espresso.org", 
     in publications or presentations arising from this work. More details at
     http://www.quantum-espresso.org/quote

     Parallel version (MPI), running on     1 processors

     MPI processes distributed on     1 nodes
     Fft bands division:     nmany     =       1
     Waiting for input...
     Reading input from standard input
Warning: card &CELL ignored
Warning: card   CELL_DYNAMICS='BFGS', ignored
Warning: card   CELL_DOFREE='ALL', ignored
Warning: card / ignored

     Current dimensions of program PWSCF are:
     Max number of different atomic species (ntypx) = 10
     Max number of k-points (npk) =  40000
     Max angular momentum in pseudopotentials (lmaxx) =  3

     File /home/jesus/Documentos/Nanociencia_DFT/silicano.update deleted, as requested

     File /home/jesus/Documentos/Nanociencia_DFT/silicano.bfgs deleted, as requested
     file H.pbe-kjpaw_psl.1.0.0.UPF: wavefunction(s)  1S renormalized

     Subspace diagonalization in iterative solution of the eigenvalue problem:
     a serial algorithm will be used

     Message from routine setup:
     using ibrav=0 with symmetry is DISCOURAGED, use correct ibrav instead
 
     G-vector sticks info
     --------------------
     sticks:   dense  smooth     PW     G-vecs:    dense   smooth      PW
     Sum         673     439    151                72185    39233    7257
 


     bravais-lattice index     =            0
     lattice parameter (alat)  =       6.8030  a.u.
     unit-cell volume          =    1402.5649 (a.u.)^3
     number of atoms/cell      =            4
     number of atomic types    =            2
     number of electrons       =        10.00
     number of Kohn-Sham states=            9
     kinetic-energy cutoff     =      35.0000  Ry
     charge density cutoff     =     210.0000  Ry
     convergence threshold     =      1.0E-06
     mixing beta               =       0.7000
     number of iterations used =            8  plain     mixing
     Exchange-correlation= SLA PW PBX PBC
                           (   1   4   3   4   0   0   0)
     nstep                     =            1


     celldm(1)=   6.803014  celldm(2)=   0.000000  celldm(3)=   0.000000
     celldm(4)=   0.000000  celldm(5)=   0.000000  celldm(6)=   0.000000

     crystal axes: (cart. coord. in units of alat)
               a(1) = (   0.500000   0.866000   0.000000 )  
               a(2) = (  -0.500000   0.866000   0.000000 )  
               a(3) = (   0.000000   0.000000   5.144000 )  

     reciprocal axes: (cart. coord. in units 2 pi/alat)
               b(1) = (  1.000000  0.577367  0.000000 )  
               b(2) = ( -1.000000  0.577367  0.000000 )  
               b(3) = (  0.000000  0.000000  0.194401 )  


     PseudoPot. # 1 for Si read from file:
     /home/jesus/Nanociencia_DFT/pseudopotenciales/Si.pbe-n-rrkjus_psl.1.0.0.UPF
     MD5 check sum: fa25574f73a70a4139f2adfbefec430c
     Pseudo is Ultrasoft + core correction, Zval =  4.0
     Generated using "atomic" code by A. Dal Corso v.6.3
     Using radial grid of 1141 points,  6 beta functions with: 
                l(1) =   0
                l(2) =   0
                l(3) =   1
                l(4) =   1
                l(5) =   2
                l(6) =   2
     Q(r) pseudized with 0 coefficients 


     PseudoPot. # 2 for H  read from file:
     /home/jesus/Nanociencia_DFT/pseudopotenciales/H.pbe-kjpaw_psl.1.0.0.UPF
     MD5 check sum: d81a744832360e4a8af0b0b5b123bc2a
     Pseudo is Projector augmented-wave, Zval =  1.0
     Generated using "atomic" code by A. Dal Corso v.6.3MaX
     Shape of augmentation charge: PSQ
     Using radial grid of  929 points,  2 beta functions with: 
                l(1) =   0
                l(2) =   0
     Q(r) pseudized with 0 coefficients 


     atomic species   valence    mass     pseudopotential
        Si             4.00    28.08550     Si( 1.00)
        H              1.00     1.00800     H ( 1.00)

      2 Sym. Ops. (no inversion) found



   Cartesian axes

     site n.     atom                  positions (alat units)
         1           H   tau(   1) = (   0.0000000   0.0000000   0.0000000  )
         2           Si  tau(   2) = (   0.0000000   0.0000000   0.3858000  )
         3           Si  tau(   3) = (   0.0000000   0.5767560   0.5709840  )
         4           H   tau(   4) = (   0.0000000   0.5767560   0.9567840  )

     number of k points=    21  Methfessel-Paxton smearing, width (Ry)=  0.0100
                       cart. coord. in units 2pi/alat
        k(    1) = (   0.0000000   0.0000000   0.0000000), wk =   0.0312500
        k(    2) = (  -0.1250000   0.0721709   0.0000000), wk =   0.1250000
        k(    3) = (  -0.2500000   0.1443418   0.0000000), wk =   0.1250000
        k(    4) = (  -0.3750000   0.2165127   0.0000000), wk =   0.1250000
        k(    5) = (   0.5000000  -0.2886836   0.0000000), wk =   0.0625000
        k(    6) = (   0.0000000   0.1443418   0.0000000), wk =   0.0625000
        k(    7) = (  -0.1250000   0.2165127   0.0000000), wk =   0.1250000
        k(    8) = (  -0.2500000   0.2886836   0.0000000), wk =   0.1250000
        k(    9) = (   0.6250000  -0.2165127   0.0000000), wk =   0.1250000
        k(   10) = (   0.5000000  -0.1443418   0.0000000), wk =   0.1250000
        k(   11) = (   0.3750000  -0.0721709   0.0000000), wk =   0.1250000
        k(   12) = (   0.2500000   0.0000000   0.0000000), wk =   0.0625000
        k(   13) = (   0.0000000   0.2886836   0.0000000), wk =   0.0625000
        k(   14) = (  -0.1250000   0.3608545   0.0000000), wk =   0.1250000
        k(   15) = (   0.7500000  -0.1443418   0.0000000), wk =   0.1250000
        k(   16) = (   0.6250000  -0.0721709   0.0000000), wk =   0.1250000
        k(   17) = (   0.5000000   0.0000000   0.0000000), wk =   0.0625000
        k(   18) = (   0.0000000   0.4330254   0.0000000), wk =   0.0625000
        k(   19) = (   0.8750000  -0.0721709   0.0000000), wk =   0.1250000
        k(   20) = (   0.7500000   0.0000000   0.0000000), wk =   0.0625000
        k(   21) = (   0.0000000  -0.5773672   0.0000000), wk =   0.0312500

     Dense  grid:    72185 G-vectors     FFT dimensions: (  32,  32, 162)

     Smooth grid:    39233 G-vectors     FFT dimensions: (  25,  25, 135)

     Estimated max dynamical RAM per process >     273.33 MB

     Initial potential from superposition of free atoms

     starting charge    9.99886, renormalised to   10.00000

     negative rho (up, down):  8.419E-05 0.000E+00
     Starting wfcs are   10 randomized atomic wfcs
     Checking if some PAW data can be deallocated... 

     total cpu time spent up to now is        2.7 secs

     Self-consistent Calculation

     iteration #  1     ecut=    35.00 Ry     beta= 0.70
     Davidson diagonalization with overlap
     ethr =  1.00E-02,  avg # of iterations =  4.6

     negative rho (up, down):  7.106E-05 0.000E+00

     total cpu time spent up to now is        6.6 secs

     total energy              =     -25.08455999 Ry
     estimated scf accuracy    <       0.22539990 Ry

     iteration #  2     ecut=    35.00 Ry     beta= 0.70
     Davidson diagonalization with overlap
     ethr =  2.25E-03,  avg # of iterations =  1.7

     negative rho (up, down):  9.123E-05 0.000E+00

     total cpu time spent up to now is        9.2 secs

     total energy              =     -25.10020187 Ry
     estimated scf accuracy    <       0.00441519 Ry

     iteration #  3     ecut=    35.00 Ry     beta= 0.70
     Davidson diagonalization with overlap
     ethr =  4.42E-05,  avg # of iterations =  9.5

     negative rho (up, down):  9.794E-05 0.000E+00

     total cpu time spent up to now is       13.6 secs

     total energy              =     -25.10105187 Ry
     estimated scf accuracy    <       0.00016601 Ry

     iteration #  4     ecut=    35.00 Ry     beta= 0.70
     Davidson diagonalization with overlap
     c_bands:  1 eigenvalues not converged
     ethr =  1.66E-06,  avg # of iterations =  7.1

     negative rho (up, down):  9.938E-05 0.000E+00

     total cpu time spent up to now is       17.3 secs

     total energy              =     -25.10107718 Ry
     estimated scf accuracy    <       0.00000536 Ry

     iteration #  5     ecut=    35.00 Ry     beta= 0.70
     Davidson diagonalization with overlap
     ethr =  5.36E-08,  avg # of iterations =  2.8

     negative rho (up, down):  9.955E-05 0.000E+00

     total cpu time spent up to now is       20.4 secs

     total energy              =     -25.10107809 Ry
     estimated scf accuracy    <       0.00000133 Ry

     iteration #  6     ecut=    35.00 Ry     beta= 0.70
     Davidson diagonalization with overlap
     ethr =  1.33E-08,  avg # of iterations =  1.6

     negative rho (up, down):  9.992E-05 0.000E+00

     total cpu time spent up to now is       23.1 secs

     End of self-consistent calculation

          k = 0.0000 0.0000 0.0000 (  4877 PWs)   bands (ev):

   -14.3426  -9.3272  -5.6362  -2.6672  -2.6508   0.0945   1.4117   1.4285
     1.4935

          k =-0.1250 0.0722 0.0000 (  4951 PWs)   bands (ev):

   -14.1363  -9.2322  -5.6229  -3.9646  -3.0674   0.4460   1.3528   1.8210
     2.0437

          k =-0.2500 0.1443 0.0000 (  4937 PWs)   bands (ev):

   -13.5309  -9.0769  -5.9786  -5.5323  -3.7536  -0.0925   1.8438   2.0839
     2.7801

          k =-0.3750 0.2165 0.0000 (  4907 PWs)   bands (ev):

   -12.5951  -9.4901  -6.9700  -5.7211  -4.2510  -0.4881   1.1102   2.3026
     3.5059

          k = 0.5000-0.2887 0.0000 (  4922 PWs)   bands (ev):

   -11.8364 -10.2609  -7.0176  -5.8692  -4.4258  -0.5915   0.7156   2.2411
     4.1185

          k = 0.0000 0.1443 0.0000 (  4951 PWs)   bands (ev):

   -14.1362  -9.2323  -5.6231  -3.9729  -3.0578   0.4504   1.3548   1.8210
     2.0437

          k =-0.1250 0.2165 0.0000 (  4939 PWs)   bands (ev):

   -13.7295  -9.0981  -5.6384  -5.2411  -3.9398   1.0555   1.3224   2.1296
     2.1969

          k =-0.2500 0.2887 0.0000 (  4899 PWs)   bands (ev):

   -12.9484  -9.1695  -6.5425  -5.7395  -4.7876   0.7370   1.7438   2.1397
     2.8760

          k = 0.6250-0.2165 0.0000 (  4882 PWs)   bands (ev):

   -11.9522  -9.9851  -6.9380  -5.8798  -5.2195   0.6034   1.0033   2.2793
     3.1962

          k = 0.5000-0.1443 0.0000 (  4882 PWs)   bands (ev):

   -11.9531  -9.9835  -6.9385  -5.8781  -5.2217   0.6057   1.0013   2.2783
     3.1959

          k = 0.3750-0.0722 0.0000 (  4899 PWs)   bands (ev):

   -12.9492  -9.1679  -6.5406  -5.7374  -4.7932   0.7392   1.7461   2.1333
     2.8741

          k = 0.2500 0.0000 0.0000 (  4939 PWs)   bands (ev):

   -13.7299  -9.0977  -5.6377  -5.2328  -3.9504   1.0586   1.3141   2.1313
     2.1962

          k = 0.0000 0.2887 0.0000 (  4937 PWs)   bands (ev):

   -13.5302  -9.0777  -5.9832  -5.5338  -3.7467  -0.0863   1.8439   2.0816
     2.7793

          k =-0.1250 0.3609 0.0000 (  4899 PWs)   bands (ev):

   -12.9476  -9.1710  -6.5448  -5.7394  -4.7848   0.7434   1.7451   2.1344
     2.8758

          k = 0.7500-0.1443 0.0000 (  4894 PWs)   bands (ev):

   -12.0455  -9.7097  -6.5475  -6.4301  -5.6354   1.2297   1.7832   2.6160
     3.0849

          k = 0.6250-0.0722 0.0000 (  4868 PWs)   bands (ev):

   -11.2385 -10.4201  -6.8788  -6.2172  -6.0208   0.9964   2.1408   2.2257
     3.3346

          k = 0.5000 0.0000 0.0000 (  4894 PWs)   bands (ev):

   -12.0481  -9.7045  -6.5460  -6.4322  -5.6375   1.2299   1.7845   2.6124
     3.0761

          k = 0.0000 0.4330 0.0000 (  4907 PWs)   bands (ev):

   -12.5926  -9.4953  -6.9704  -5.7237  -4.2453  -0.4825   1.1116   2.2988
     3.5060

          k = 0.8750-0.0722 0.0000 (  4882 PWs)   bands (ev):

   -11.9480  -9.9924  -6.9368  -5.8822  -5.2157   0.6097   1.0053   2.2742
     3.1968

          k = 0.7500 0.0000 0.0000 (  4868 PWs)   bands (ev):

   -11.2314 -10.4295  -6.8774  -6.2137  -6.0238   0.9978   2.1400   2.2269
     3.3380

          k = 0.0000-0.5774 0.0000 (  4922 PWs)   bands (ev):

   -11.8290 -10.2721  -7.0151  -5.8736  -4.4205  -0.5864   0.7186   2.2354
     4.1196

     the Fermi energy is    -1.5478 ev

!    total energy              =     -25.10107835 Ry
     estimated scf accuracy    <       0.00000020 Ry
     smearing contrib. (-TS)   =       0.00000000 Ry
     internal energy E=F+TS    =     -25.10107835 Ry

     The total energy is F=E-TS. E is the sum of the following terms:
     one-electron contribution =    -117.37208288 Ry
     hartree contribution      =      60.23156950 Ry
     xc contribution           =     -13.97422745 Ry
     ewald contribution        =      46.01393686 Ry
     one-center paw contrib.   =      -0.00027439 Ry

     convergence has been achieved in   6 iterations

     negative rho (up, down):  9.992E-05 0.000E+00

     Forces acting on atoms (cartesian axes, Ry/au):

     atom    1 type  2   force =     0.00000000   -0.00001849   -0.09530941
     atom    2 type  1   force =     0.00000000   -0.00180362    0.01380679
     atom    3 type  1   force =     0.00000000    0.00179701   -0.01368601
     atom    4 type  2   force =     0.00000000    0.00002511    0.09518864

     Total force =     0.136122     Total SCF correction =     0.000780

     BFGS Geometry Optimization

     number of scf cycles    =   1
     number of bfgs steps    =   0

     energy   new            =     -25.1010783522 Ry

     new trust radius        =       0.0953094157 bohr

     The maximum number of steps has been reached.

     End of BFGS Geometry Optimization

ATOMIC_POSITIONS (crystal)
H            -0.0000015693       -0.0000015693       -0.0027235382
Si           -0.0001530724       -0.0001530724        0.0753945394
Si            0.3331525106        0.3331525106        0.1106089119
H             0.3330021310        0.3330021310        0.1887200869



     Writing output data file /home/jesus/Documentos/Nanociencia_DFT/silicano.save/
     NEW-OLD atomic charge density approx. for the potential

     negative rho (up, down):  9.545E-05 0.000E+00

     Writing output data file /home/jesus/Documentos/Nanociencia_DFT/silicano.save/
 
     init_run     :      1.70s CPU      1.87s WALL (       1 calls)
     electrons    :     19.07s CPU     20.38s WALL (       1 calls)
     update_pot   :      0.46s CPU      0.46s WALL (       1 calls)
     forces       :      0.82s CPU      0.93s WALL (       1 calls)

     Called by init_run:
     wfcinit      :      0.78s CPU      0.78s WALL (       1 calls)
     potinit      :      0.22s CPU      0.24s WALL (       1 calls)
     hinit0       :      0.45s CPU      0.48s WALL (       1 calls)

     Called by electrons:
     c_bands      :     13.75s CPU     13.81s WALL (       6 calls)
     sum_band     :      3.49s CPU      4.08s WALL (       6 calls)
     v_of_rho     :      0.65s CPU      0.68s WALL (       8 calls)
     newd         :      1.59s CPU      2.46s WALL (       8 calls)
     PAW_pot      :      0.01s CPU      0.01s WALL (       9 calls)
     mix_rho      :      0.06s CPU      0.06s WALL (       6 calls)

     Called by c_bands:
     init_us_2    :      0.61s CPU      0.62s WALL (     315 calls)
     cegterg      :     11.58s CPU     11.63s WALL (     126 calls)

     Called by *egterg:
     cdiaghg      :      0.11s CPU      0.12s WALL (     699 calls)
     h_psi        :     10.56s CPU     10.60s WALL (     720 calls)
     s_psi        :      0.45s CPU      0.45s WALL (     720 calls)
     g_psi        :      0.04s CPU      0.05s WALL (     573 calls)

     Called by h_psi:
     h_psi:calbec :      0.48s CPU      0.48s WALL (     720 calls)
     vloc_psi     :      9.54s CPU      9.57s WALL (     720 calls)
     add_vuspsi   :      0.48s CPU      0.48s WALL (     720 calls)

     General routines
     calbec       :      0.69s CPU      0.70s WALL (     951 calls)
     fft          :      0.22s CPU      0.24s WALL (     114 calls)
     ffts         :      0.02s CPU      0.02s WALL (      14 calls)
     fftw         :      9.29s CPU      9.34s WALL (    8490 calls)
     interpolate  :      0.04s CPU      0.04s WALL (       8 calls)
     davcio       :      0.00s CPU      0.01s WALL (      21 calls)
 
     Parallel routines
 
     PWSCF        :     23.15s CPU     24.91s WALL

 
   This run was terminated on:  17: 7:24  31Mar2021            

=------------------------------------------------------------------------------=
   JOB DONE.
=------------------------------------------------------------------------------=
