
     Program PWSCF v.6.6 starts on 31Mar2021 at 17:17: 7 

     This program is part of the open-source Quantum ESPRESSO suite
     for quantum simulation of materials; please cite
         "P. Giannozzi et al., J. Phys.:Condens. Matter 21 395502 (2009);
         "P. Giannozzi et al., J. Phys.:Condens. Matter 29 465901 (2017);
          URL http://www.quantum-espresso.org", 
     in publications or presentations arising from this work. More details at
     http://www.quantum-espresso.org/quote

     Parallel version (MPI), running on     1 processors

     MPI processes distributed on     1 nodes
     Fft bands division:     nmany     =       1
     Waiting for input...
     Reading input from standard input
Warning: card &CELL ignored
Warning: card   CELL_DYNAMICS='BFGS', ignored
Warning: card   CELL_DOFREE='ALL', ignored
Warning: card / ignored

     Current dimensions of program PWSCF are:
     Max number of different atomic species (ntypx) = 10
     Max number of k-points (npk) =  40000
     Max angular momentum in pseudopotentials (lmaxx) =  3

     File /home/jesus/Documentos/Nanociencia_DFT/silicano.update deleted, as requested

     File /home/jesus/Documentos/Nanociencia_DFT/silicano.bfgs deleted, as requested
     file H.pbe-kjpaw_psl.1.0.0.UPF: wavefunction(s)  1S renormalized

     Subspace diagonalization in iterative solution of the eigenvalue problem:
     a serial algorithm will be used

     Message from routine setup:
     using ibrav=0 with symmetry is DISCOURAGED, use correct ibrav instead
 
     G-vector sticks info
     --------------------
     sticks:   dense  smooth     PW     G-vecs:    dense   smooth      PW
     Sum        1237     835    253               181771    98957   16599
 


     bravais-lattice index     =            0
     lattice parameter (alat)  =       9.2597  a.u.
     unit-cell volume          =    3536.7446 (a.u.)^3
     number of atoms/cell      =            4
     number of atomic types    =            2
     number of electrons       =        10.00
     number of Kohn-Sham states=            9
     kinetic-energy cutoff     =      35.0000  Ry
     charge density cutoff     =     210.0000  Ry
     convergence threshold     =      1.0E-06
     mixing beta               =       0.7000
     number of iterations used =            8  plain     mixing
     Exchange-correlation= SLA PW PBX PBC
                           (   1   4   3   4   0   0   0)
     nstep                     =            1


     celldm(1)=   9.259658  celldm(2)=   0.000000  celldm(3)=   0.000000
     celldm(4)=   0.000000  celldm(5)=   0.000000  celldm(6)=   0.000000

     crystal axes: (cart. coord. in units of alat)
               a(1) = (   0.500000   0.866000   0.000000 )  
               a(2) = (  -0.500000   0.866000   0.000000 )  
               a(3) = (   0.000000   0.000000   5.144000 )  

     reciprocal axes: (cart. coord. in units 2 pi/alat)
               b(1) = (  1.000000  0.577367  0.000000 )  
               b(2) = ( -1.000000  0.577367  0.000000 )  
               b(3) = (  0.000000  0.000000  0.194401 )  


     PseudoPot. # 1 for Si read from file:
     /home/jesus/Nanociencia_DFT/pseudopotenciales/Si.pbe-n-rrkjus_psl.1.0.0.UPF
     MD5 check sum: fa25574f73a70a4139f2adfbefec430c
     Pseudo is Ultrasoft + core correction, Zval =  4.0
     Generated using "atomic" code by A. Dal Corso v.6.3
     Using radial grid of 1141 points,  6 beta functions with: 
                l(1) =   0
                l(2) =   0
                l(3) =   1
                l(4) =   1
                l(5) =   2
                l(6) =   2
     Q(r) pseudized with 0 coefficients 


     PseudoPot. # 2 for H  read from file:
     /home/jesus/Nanociencia_DFT/pseudopotenciales/H.pbe-kjpaw_psl.1.0.0.UPF
     MD5 check sum: d81a744832360e4a8af0b0b5b123bc2a
     Pseudo is Projector augmented-wave, Zval =  1.0
     Generated using "atomic" code by A. Dal Corso v.6.3MaX
     Shape of augmentation charge: PSQ
     Using radial grid of  929 points,  2 beta functions with: 
                l(1) =   0
                l(2) =   0
     Q(r) pseudized with 0 coefficients 


     atomic species   valence    mass     pseudopotential
        Si             4.00    28.08550     Si( 1.00)
        H              1.00     1.00800     H ( 1.00)

      2 Sym. Ops. (no inversion) found



   Cartesian axes

     site n.     atom                  positions (alat units)
         1           H   tau(   1) = (   0.0000000   0.0000000   0.0000000  )
         2           Si  tau(   2) = (   0.0000000   0.0000000   0.3858000  )
         3           Si  tau(   3) = (   0.0000000   0.5767560   0.5709840  )
         4           H   tau(   4) = (   0.0000000   0.5767560   0.9567840  )

     number of k points=    21  Methfessel-Paxton smearing, width (Ry)=  0.0100
                       cart. coord. in units 2pi/alat
        k(    1) = (   0.0000000   0.0000000   0.0000000), wk =   0.0312500
        k(    2) = (  -0.1250000   0.0721709   0.0000000), wk =   0.1250000
        k(    3) = (  -0.2500000   0.1443418   0.0000000), wk =   0.1250000
        k(    4) = (  -0.3750000   0.2165127   0.0000000), wk =   0.1250000
        k(    5) = (   0.5000000  -0.2886836   0.0000000), wk =   0.0625000
        k(    6) = (   0.0000000   0.1443418   0.0000000), wk =   0.0625000
        k(    7) = (  -0.1250000   0.2165127   0.0000000), wk =   0.1250000
        k(    8) = (  -0.2500000   0.2886836   0.0000000), wk =   0.1250000
        k(    9) = (   0.6250000  -0.2165127   0.0000000), wk =   0.1250000
        k(   10) = (   0.5000000  -0.1443418   0.0000000), wk =   0.1250000
        k(   11) = (   0.3750000  -0.0721709   0.0000000), wk =   0.1250000
        k(   12) = (   0.2500000   0.0000000   0.0000000), wk =   0.0625000
        k(   13) = (   0.0000000   0.2886836   0.0000000), wk =   0.0625000
        k(   14) = (  -0.1250000   0.3608545   0.0000000), wk =   0.1250000
        k(   15) = (   0.7500000  -0.1443418   0.0000000), wk =   0.1250000
        k(   16) = (   0.6250000  -0.0721709   0.0000000), wk =   0.1250000
        k(   17) = (   0.5000000   0.0000000   0.0000000), wk =   0.0625000
        k(   18) = (   0.0000000   0.4330254   0.0000000), wk =   0.0625000
        k(   19) = (   0.8750000  -0.0721709   0.0000000), wk =   0.1250000
        k(   20) = (   0.7500000   0.0000000   0.0000000), wk =   0.0625000
        k(   21) = (   0.0000000  -0.5773672   0.0000000), wk =   0.0312500

     Dense  grid:   181771 G-vectors     FFT dimensions: (  45,  45, 225)

     Smooth grid:    98957 G-vectors     FFT dimensions: (  36,  36, 180)

     Estimated max dynamical RAM per process >     687.40 MB

     Initial potential from superposition of free atoms

     starting charge    9.99886, renormalised to   10.00000

     negative rho (up, down):  1.612E-04 0.000E+00
     Starting wfcs are   10 randomized atomic wfcs
     Checking if some PAW data can be deallocated... 

     total cpu time spent up to now is        5.8 secs

     Self-consistent Calculation

     iteration #  1     ecut=    35.00 Ry     beta= 0.70
     Davidson diagonalization with overlap
     ethr =  1.00E-02,  avg # of iterations =  2.3

     negative rho (up, down):  8.135E-05 0.000E+00

     total cpu time spent up to now is       15.1 secs

     total energy              =     -24.84794724 Ry
     estimated scf accuracy    <       0.11157107 Ry

     iteration #  2     ecut=    35.00 Ry     beta= 0.70
     Davidson diagonalization with overlap
     ethr =  1.12E-03,  avg # of iterations =  2.1

     negative rho (up, down):  1.274E-04 0.000E+00

     total cpu time spent up to now is       23.9 secs

     total energy              =     -24.86889868 Ry
     estimated scf accuracy    <       0.05166755 Ry

     iteration #  3     ecut=    35.00 Ry     beta= 0.70
     Davidson diagonalization with overlap
     ethr =  5.17E-04,  avg # of iterations =  1.1

     negative rho (up, down):  1.300E-04 0.000E+00

     total cpu time spent up to now is       32.0 secs

     total energy              =     -24.87940477 Ry
     estimated scf accuracy    <       0.00166809 Ry

     iteration #  4     ecut=    35.00 Ry     beta= 0.70
     Davidson diagonalization with overlap
     ethr =  1.67E-05,  avg # of iterations =  5.3

     negative rho (up, down):  1.275E-04 0.000E+00

     total cpu time spent up to now is       43.4 secs

     total energy              =     -24.87982436 Ry
     estimated scf accuracy    <       0.00066514 Ry

     iteration #  5     ecut=    35.00 Ry     beta= 0.70
     Davidson diagonalization with overlap
     ethr =  6.65E-06,  avg # of iterations =  2.0

     negative rho (up, down):  1.308E-04 0.000E+00

     total cpu time spent up to now is       51.7 secs

     total energy              =     -24.87994573 Ry
     estimated scf accuracy    <       0.00000365 Ry

     iteration #  6     ecut=    35.00 Ry     beta= 0.70
     Davidson diagonalization with overlap
     ethr =  3.65E-08,  avg # of iterations =  4.9

     negative rho (up, down):  1.311E-04 0.000E+00

     total cpu time spent up to now is       62.2 secs

     total energy              =     -24.87994981 Ry
     estimated scf accuracy    <       0.00000947 Ry

     iteration #  7     ecut=    35.00 Ry     beta= 0.70
     Davidson diagonalization with overlap
     ethr =  3.65E-08,  avg # of iterations =  1.4

     negative rho (up, down):  1.314E-04 0.000E+00

     total cpu time spent up to now is       70.4 secs

     End of self-consistent calculation

          k = 0.0000 0.0000 0.0000 ( 12335 PWs)   bands (ev):

   -12.3322  -9.3028  -6.2943  -5.0323  -4.6170  -4.6063  -1.7195  -1.7054
    -1.3730

          k =-0.1250 0.0722 0.0000 ( 12383 PWs)   bands (ev):

   -12.2449  -9.3924  -6.3012  -5.7169  -4.7477  -3.8944  -1.7751  -1.4507
    -1.3013

          k =-0.2500 0.1443 0.0000 ( 12375 PWs)   bands (ev):

   -11.9941  -9.6800  -6.3483  -6.2832  -5.0103  -3.4220  -1.6628  -1.0422
    -0.8856

          k =-0.3750 0.2165 0.0000 ( 12373 PWs)   bands (ev):

   -11.6303 -10.1217  -6.5793  -6.3662  -5.2215  -3.3934  -1.4900  -0.8451
    -0.3981

          k = 0.5000-0.2887 0.0000 ( 12356 PWs)   bands (ev):

   -11.3832 -10.4109  -6.6374  -6.3958  -5.2989  -3.4205  -1.4425  -0.8678
    -0.2275

          k = 0.0000 0.1443 0.0000 ( 12385 PWs)   bands (ev):

   -12.2447  -9.3929  -6.3014  -5.7203  -4.7408  -3.8972  -1.7666  -1.4600
    -1.3009

          k =-0.1250 0.2165 0.0000 ( 12369 PWs)   bands (ev):

   -12.0748  -9.5835  -6.3196  -6.1637  -5.0238  -3.3280  -1.8209  -1.2674
    -0.8904

          k =-0.2500 0.2887 0.0000 ( 12371 PWs)   bands (ev):

   -11.7589  -9.9608  -6.4781  -6.3580  -5.3656  -2.9683  -1.6540  -1.0258
    -0.4581

          k = 0.6250-0.2165 0.0000 ( 12374 PWs)   bands (ev):

   -11.3938 -10.3888  -6.5931  -6.4002  -5.5587  -2.9418  -1.4812  -0.8001
    -0.4189

          k = 0.5000-0.1443 0.0000 ( 12374 PWs)   bands (ev):

   -11.3946 -10.3877  -6.5929  -6.3997  -5.5600  -2.9410  -1.4824  -0.7973
    -0.4221

          k = 0.3750-0.0722 0.0000 ( 12371 PWs)   bands (ev):

   -11.7599  -9.9590  -6.4768  -6.3572  -5.3696  -2.9655  -1.6593  -1.0230
    -0.4611

          k = 0.2500 0.0000 0.0000 ( 12371 PWs)   bands (ev):

   -12.0754  -9.5821  -6.3193  -6.1603  -5.0306  -3.3248  -1.8301  -1.2639
    -0.8865

          k = 0.0000 0.2887 0.0000 ( 12375 PWs)   bands (ev):

   -11.9932  -9.6820  -6.3504  -6.2845  -5.0051  -3.4198  -1.6593  -1.0403
    -0.8922

          k =-0.1250 0.3609 0.0000 ( 12371 PWs)   bands (ev):

   -11.7580  -9.9626  -6.4798  -6.3578  -5.3636  -2.9649  -1.6540  -1.0253
    -0.4609

          k = 0.7500-0.1443 0.0000 ( 12353 PWs)   bands (ev):

   -11.4028 -10.3686  -6.5223  -6.4189  -5.7798  -2.3333  -1.6629  -0.8559
    -0.3399

          k = 0.6250-0.0722 0.0000 ( 12348 PWs)   bands (ev):

   -11.1054 -10.6877  -6.5227  -6.4416  -5.9436  -2.1490  -1.6052  -0.6167
    -0.4752

          k = 0.5000 0.0000 0.0000 ( 12353 PWs)   bands (ev):

   -11.4055 -10.3646  -6.5210  -6.4179  -5.7838  -2.3308  -1.6686  -0.8515
    -0.3451

          k = 0.0000 0.4330 0.0000 ( 12373 PWs)   bands (ev):

   -11.6274 -10.1266  -6.5815  -6.3667  -5.2173  -3.3886  -1.4888  -0.8427
    -0.4023

          k = 0.8750-0.0722 0.0000 ( 12374 PWs)   bands (ev):

   -11.3899 -10.3944  -6.5947  -6.4006  -5.5555  -2.9377  -1.4806  -0.7967
    -0.4232

          k = 0.7500 0.0000 0.0000 ( 12350 PWs)   bands (ev):

   -11.1001 -10.6940  -6.5239  -6.4419  -5.9413  -2.1485  -1.6034  -0.6185
    -0.4724

          k = 0.0000-0.5774 0.0000 ( 12356 PWs)   bands (ev):

   -11.3775 -10.4190  -6.6389  -6.3966  -5.2950  -3.4152  -1.4417  -0.8657
    -0.2306

     the Fermi energy is    -4.6193 ev

!    total energy              =     -24.87995040 Ry
     estimated scf accuracy    <       0.00000098 Ry
     smearing contrib. (-TS)   =      -0.00000500 Ry
     internal energy E=F+TS    =     -24.87994541 Ry

     The total energy is F=E-TS. E is the sum of the following terms:
     one-electron contribution =     -93.16557861 Ry
     hartree contribution      =      47.38869427 Ry
     xc contribution           =     -12.90893546 Ry
     ewald contribution        =      33.80615769 Ry
     one-center paw contrib.   =      -0.00028329 Ry

     convergence has been achieved in   7 iterations

     negative rho (up, down):  1.314E-04 0.000E+00

     Forces acting on atoms (cartesian axes, Ry/au):

     atom    1 type  2   force =     0.00000000    0.00002630    0.10196678
     atom    2 type  1   force =     0.00000000    0.00003104   -0.03896027
     atom    3 type  1   force =     0.00000000   -0.00003447    0.03896331
     atom    4 type  2   force =     0.00000000   -0.00002286   -0.10196982

     Total force =     0.154373     Total SCF correction =     0.000633

     BFGS Geometry Optimization

     number of scf cycles    =   1
     number of bfgs steps    =   0

     energy   new            =     -24.8799504043 Ry

     new trust radius        =       0.1019698198 bohr

     The maximum number of steps has been reached.

     End of BFGS Geometry Optimization

ATOMIC_POSITIONS (crystal)
H             0.0000016398        0.0000016398        0.0021407344
Si            0.0000019353        0.0000019353        0.0741820513
Si            0.3329978504        0.3329978504        0.1118180125
H             0.3329985744        0.3329985744        0.1838592018



     Writing output data file /home/jesus/Documentos/Nanociencia_DFT/silicano.save/
     NEW-OLD atomic charge density approx. for the potential

     negative rho (up, down):  1.387E-04 0.000E+00

     Writing output data file /home/jesus/Documentos/Nanociencia_DFT/silicano.save/
 
     init_run     :      4.57s CPU      4.93s WALL (       1 calls)
     electrons    :     60.93s CPU     64.59s WALL (       1 calls)
     update_pot   :      1.19s CPU      1.20s WALL (       1 calls)
     forces       :      2.04s CPU      2.31s WALL (       1 calls)

     Called by init_run:
     wfcinit      :      2.43s CPU      2.45s WALL (       1 calls)
     potinit      :      0.64s CPU      0.69s WALL (       1 calls)
     hinit0       :      0.78s CPU      0.82s WALL (       1 calls)

     Called by electrons:
     c_bands      :     42.19s CPU     42.28s WALL (       7 calls)
     sum_band     :     12.86s CPU     14.51s WALL (       7 calls)
     v_of_rho     :      2.00s CPU      2.15s WALL (       9 calls)
     newd         :      4.94s CPU      7.27s WALL (       9 calls)
     PAW_pot      :      0.01s CPU      0.01s WALL (      10 calls)
     mix_rho      :      0.29s CPU      0.29s WALL (       7 calls)

     Called by c_bands:
     init_us_2    :      1.73s CPU      1.75s WALL (     357 calls)
     cegterg      :     35.92s CPU     36.00s WALL (     147 calls)

     Called by *egterg:
     cdiaghg      :      0.09s CPU      0.09s WALL (     548 calls)
     h_psi        :     34.20s CPU     34.28s WALL (     569 calls)
     s_psi        :      1.10s CPU      1.10s WALL (     569 calls)
     g_psi        :      0.11s CPU      0.11s WALL (     401 calls)

     Called by h_psi:
     h_psi:calbec :      1.09s CPU      1.09s WALL (     569 calls)
     vloc_psi     :     31.80s CPU     31.88s WALL (     569 calls)
     add_vuspsi   :      1.12s CPU      1.12s WALL (     569 calls)

     General routines
     calbec       :      1.65s CPU      1.66s WALL (     821 calls)
     fft          :      0.99s CPU      1.01s WALL (     127 calls)
     ffts         :      0.06s CPU      0.06s WALL (      16 calls)
     fftw         :     30.59s CPU     30.67s WALL (    8711 calls)
     interpolate  :      0.15s CPU      0.15s WALL (       9 calls)
     davcio       :      0.01s CPU      0.09s WALL (      21 calls)
 
     Parallel routines
 
     PWSCF        :   1m10.37s CPU   1m15.13s WALL

 
   This run was terminated on:  17:18:22  31Mar2021            

=------------------------------------------------------------------------------=
   JOB DONE.
=------------------------------------------------------------------------------=
