
     Program PWSCF v.6.6 starts on  1Apr2021 at 22:59:57 

     This program is part of the open-source Quantum ESPRESSO suite
     for quantum simulation of materials; please cite
         "P. Giannozzi et al., J. Phys.:Condens. Matter 21 395502 (2009);
         "P. Giannozzi et al., J. Phys.:Condens. Matter 29 465901 (2017);
          URL http://www.quantum-espresso.org", 
     in publications or presentations arising from this work. More details at
     http://www.quantum-espresso.org/quote

     Parallel version (MPI), running on     1 processors

     MPI processes distributed on     1 nodes
     Fft bands division:     nmany     =       1
     Waiting for input...
     Reading input from standard input
Warning: card &CELL ignored
Warning: card   CELL_DYNAMICS='BFGS', ignored
Warning: card   CELL_DOFREE='ALL', ignored
Warning: card / ignored

     Current dimensions of program PWSCF are:
     Max number of different atomic species (ntypx) = 10
     Max number of k-points (npk) =  40000
     Max angular momentum in pseudopotentials (lmaxx) =  3

     File /home/jesus/Documentos/Nanociencia_DFT/silicano.update deleted, as requested

     File /home/jesus/Documentos/Nanociencia_DFT/silicano.bfgs deleted, as requested

     Subspace diagonalization in iterative solution of the eigenvalue problem:
     a serial algorithm will be used

     Message from routine setup:
     using ibrav=0 with symmetry is DISCOURAGED, use correct ibrav instead
 
     G-vector sticks info
     --------------------
     sticks:   dense  smooth     PW     G-vecs:    dense   smooth      PW
     Sum         745     499    163                84783    46261    8377
 


     bravais-lattice index     =            0
     lattice parameter (alat)  =       7.1810  a.u.
     unit-cell volume          =    1649.5529 (a.u.)^3
     number of atoms/cell      =            4
     number of atomic types    =            2
     number of electrons       =        10.00
     number of Kohn-Sham states=            9
     kinetic-energy cutoff     =      35.0000  Ry
     charge density cutoff     =     210.0000  Ry
     convergence threshold     =      1.0E-06
     mixing beta               =       0.7000
     number of iterations used =            8  plain     mixing
     Exchange-correlation= PBE
                           (   1   4   3   4   0   0   0)
     nstep                     =            1


     celldm(1)=   7.180959  celldm(2)=   0.000000  celldm(3)=   0.000000
     celldm(4)=   0.000000  celldm(5)=   0.000000  celldm(6)=   0.000000

     crystal axes: (cart. coord. in units of alat)
               a(1) = (   0.500000   0.866000   0.000000 )  
               a(2) = (  -0.500000   0.866000   0.000000 )  
               a(3) = (   0.000000   0.000000   5.144000 )  

     reciprocal axes: (cart. coord. in units 2 pi/alat)
               b(1) = (  1.000000  0.577367  0.000000 )  
               b(2) = ( -1.000000  0.577367  0.000000 )  
               b(3) = (  0.000000  0.000000  0.194401 )  


     PseudoPot. # 1 for Si read from file:
     /home/jesus/Nanociencia_DFT/pseudopotenciales/Si.pbe-n-rrkjus_psl.1.0.0.UPF
     MD5 check sum: fa25574f73a70a4139f2adfbefec430c
     Pseudo is Ultrasoft + core correction, Zval =  4.0
     Generated using "atomic" code by A. Dal Corso v.6.3
     Using radial grid of 1141 points,  6 beta functions with: 
                l(1) =   0
                l(2) =   0
                l(3) =   1
                l(4) =   1
                l(5) =   2
                l(6) =   2
     Q(r) pseudized with 0 coefficients 


     PseudoPot. # 2 for H  read from file:
     /home/jesus/Nanociencia_DFT/pseudopotenciales/H.pbe-rrkjus_psl.1.0.0.UPF
     MD5 check sum: 3f4114867bd07edc7f1424d066fc1888
     Pseudo is Ultrasoft, Zval =  1.0
     Generated using "atomic" code by A. Dal Corso v.6.3MaX
     Using radial grid of  929 points,  2 beta functions with: 
                l(1) =   0
                l(2) =   0
     Q(r) pseudized with 0 coefficients 


     atomic species   valence    mass     pseudopotential
        Si             4.00    28.08550     Si( 1.00)
        H              1.00     1.00800     H ( 1.00)

      2 Sym. Ops. (no inversion) found



   Cartesian axes

     site n.     atom                  positions (alat units)
         1           H   tau(   1) = (   0.0000000   0.0000000   0.0000000  )
         2           Si  tau(   2) = (   0.0000000   0.0000000   0.3858000  )
         3           Si  tau(   3) = (   0.0000000   0.5767560   0.5709840  )
         4           H   tau(   4) = (   0.0000000   0.5767560   0.9567840  )

     number of k points=    21  Methfessel-Paxton smearing, width (Ry)=  0.0100
                       cart. coord. in units 2pi/alat
        k(    1) = (   0.0000000   0.0000000   0.0000000), wk =   0.0312500
        k(    2) = (  -0.1250000   0.0721709   0.0000000), wk =   0.1250000
        k(    3) = (  -0.2500000   0.1443418   0.0000000), wk =   0.1250000
        k(    4) = (  -0.3750000   0.2165127   0.0000000), wk =   0.1250000
        k(    5) = (   0.5000000  -0.2886836   0.0000000), wk =   0.0625000
        k(    6) = (   0.0000000   0.1443418   0.0000000), wk =   0.0625000
        k(    7) = (  -0.1250000   0.2165127   0.0000000), wk =   0.1250000
        k(    8) = (  -0.2500000   0.2886836   0.0000000), wk =   0.1250000
        k(    9) = (   0.6250000  -0.2165127   0.0000000), wk =   0.1250000
        k(   10) = (   0.5000000  -0.1443418   0.0000000), wk =   0.1250000
        k(   11) = (   0.3750000  -0.0721709   0.0000000), wk =   0.1250000
        k(   12) = (   0.2500000   0.0000000   0.0000000), wk =   0.0625000
        k(   13) = (   0.0000000   0.2886836   0.0000000), wk =   0.0625000
        k(   14) = (  -0.1250000   0.3608545   0.0000000), wk =   0.1250000
        k(   15) = (   0.7500000  -0.1443418   0.0000000), wk =   0.1250000
        k(   16) = (   0.6250000  -0.0721709   0.0000000), wk =   0.1250000
        k(   17) = (   0.5000000   0.0000000   0.0000000), wk =   0.0625000
        k(   18) = (   0.0000000   0.4330254   0.0000000), wk =   0.0625000
        k(   19) = (   0.8750000  -0.0721709   0.0000000), wk =   0.1250000
        k(   20) = (   0.7500000   0.0000000   0.0000000), wk =   0.0625000
        k(   21) = (   0.0000000  -0.5773672   0.0000000), wk =   0.0312500

     Dense  grid:    84783 G-vectors     FFT dimensions: (  36,  36, 180)

     Smooth grid:    46261 G-vectors     FFT dimensions: (  27,  27, 144)

     Estimated max dynamical RAM per process >     323.29 MB

     Initial potential from superposition of free atoms

     starting charge    9.99886, renormalised to   10.00000

     negative rho (up, down):  9.436E-05 0.000E+00
     Starting wfcs are   10 randomized atomic wfcs

     total cpu time spent up to now is        3.3 secs

     Self-consistent Calculation

     iteration #  1     ecut=    35.00 Ry     beta= 0.70
     Davidson diagonalization with overlap
     ethr =  1.00E-02,  avg # of iterations =  4.0

     negative rho (up, down):  7.676E-05 0.000E+00

     total cpu time spent up to now is        7.4 secs

     total energy              =     -25.14452317 Ry
     estimated scf accuracy    <       0.18133222 Ry

     iteration #  2     ecut=    35.00 Ry     beta= 0.70
     Davidson diagonalization with overlap
     ethr =  1.81E-03,  avg # of iterations =  1.7

     negative rho (up, down):  9.353E-05 0.000E+00

     total cpu time spent up to now is       10.5 secs

     total energy              =     -25.15558788 Ry
     estimated scf accuracy    <       0.00445987 Ry

     iteration #  3     ecut=    35.00 Ry     beta= 0.70
     Davidson diagonalization with overlap
     ethr =  4.46E-05,  avg # of iterations =  8.8

     negative rho (up, down):  9.607E-05 0.000E+00

     total cpu time spent up to now is       15.5 secs

     total energy              =     -25.15633103 Ry
     estimated scf accuracy    <       0.00019839 Ry

     iteration #  4     ecut=    35.00 Ry     beta= 0.70
     Davidson diagonalization with overlap
     ethr =  1.98E-06,  avg # of iterations =  5.4

     negative rho (up, down):  9.825E-05 0.000E+00

     total cpu time spent up to now is       19.7 secs

     total energy              =     -25.15636405 Ry
     estimated scf accuracy    <       0.00001979 Ry

     iteration #  5     ecut=    35.00 Ry     beta= 0.70
     Davidson diagonalization with overlap
     ethr =  1.98E-07,  avg # of iterations =  2.0

     negative rho (up, down):  9.841E-05 0.000E+00

     total cpu time spent up to now is       23.0 secs

     total energy              =     -25.15636665 Ry
     estimated scf accuracy    <       0.00000160 Ry

     iteration #  6     ecut=    35.00 Ry     beta= 0.70
     Davidson diagonalization with overlap
     ethr =  1.60E-08,  avg # of iterations =  1.9

     negative rho (up, down):  9.887E-05 0.000E+00

     total cpu time spent up to now is       26.8 secs

     End of self-consistent calculation

          k = 0.0000 0.0000 0.0000 (  5793 PWs)   bands (ev):

   -13.8861  -9.1902  -5.8122  -3.1989  -3.1833  -0.6818   0.7877   0.8044
     1.0053

          k =-0.1250 0.0722 0.0000 (  5777 PWs)   bands (ev):

   -13.7057  -9.1336  -5.8083  -4.3812  -3.5291  -0.1776   0.8183   1.3489
     1.4536

          k =-0.2500 0.1443 0.0000 (  5762 PWs)   bands (ev):

   -13.1784  -9.1003  -6.1015  -5.7579  -4.1165  -0.5964   1.3382   1.5882
     2.3402

          k =-0.3750 0.2165 0.0000 (  5780 PWs)   bands (ev):

   -12.3733  -9.5819  -6.9037  -5.9216  -4.5514  -0.9299   0.7898   1.6247
     3.3670

          k = 0.5000-0.2887 0.0000 (  5782 PWs)   bands (ev):

   -11.7487 -10.2260  -6.9753  -6.0357  -4.7055  -1.0091   0.4182   1.5925
     3.3490

          k = 0.0000 0.1443 0.0000 (  5777 PWs)   bands (ev):

   -13.7056  -9.1337  -5.8085  -4.3892  -3.5197  -0.1741   0.8215   1.3498
     1.4436

          k =-0.1250 0.2165 0.0000 (  5773 PWs)   bands (ev):

   -13.3508  -9.0815  -5.8319  -5.5106  -4.2459   0.4563   0.6939   1.5602
     1.8021

          k =-0.2500 0.2887 0.0000 (  5750 PWs)   bands (ev):

   -12.6737  -9.2846  -6.5598  -5.9259  -4.9857   0.1818   1.3180   1.5313
     2.3092

          k = 0.6250-0.2165 0.0000 (  5767 PWs)   bands (ev):

   -11.8292 -10.0336  -6.8887  -6.0460  -5.3637   0.0880   0.6651   1.6112
     2.5419

          k = 0.5000-0.1443 0.0000 (  5767 PWs)   bands (ev):

   -11.8301 -10.0320  -6.8891  -6.0445  -5.3657   0.0895   0.6638   1.6110
     2.5415

          k = 0.3750-0.0722 0.0000 (  5750 PWs)   bands (ev):

   -12.6746  -9.2827  -6.5579  -5.9239  -4.9914   0.1835   1.3204   1.5267
     2.3076

          k = 0.2500 0.0000 0.0000 (  5773 PWs)   bands (ev):

   -13.3513  -9.0809  -5.8312  -5.5027  -4.2561   0.4606   0.6849   1.5625
     1.8012

          k = 0.0000 0.2887 0.0000 (  5762 PWs)   bands (ev):

   -13.1776  -9.1015  -6.1063  -5.7590  -4.1097  -0.5901   1.3382   1.5868
     2.3392

          k =-0.1250 0.3609 0.0000 (  5750 PWs)   bands (ev):

   -12.6728  -9.2862  -6.5621  -5.9257  -4.9829   0.1880   1.3191   1.5278
     2.3086

          k = 0.7500-0.1443 0.0000 (  5761 PWs)   bands (ev):

   -11.8967  -9.8435  -6.5753  -6.3849  -5.7991   0.8970   1.2740   2.0503
     2.4202

          k = 0.6250-0.0722 0.0000 (  5783 PWs)   bands (ev):

   -11.2168 -10.4673  -6.7538  -6.2672  -6.1693   0.7334   1.6200   1.6902
     2.4350

          k = 0.5000 0.0000 0.0000 (  5761 PWs)   bands (ev):

   -11.8995  -9.8383  -6.5738  -6.3853  -5.8028   0.8980   1.2743   2.0465
     2.4114

          k = 0.0000 0.4330 0.0000 (  5780 PWs)   bands (ev):

   -12.3706  -9.5873  -6.9047  -5.9237  -4.5458  -0.9240   0.7911   1.6220
     3.3677

          k = 0.8750-0.0722 0.0000 (  5765 PWs)   bands (ev):

   -11.8248 -10.0409  -6.8884  -6.0479  -5.3597   0.0943   0.6667   1.6075
     2.5424

          k = 0.7500 0.0000 0.0000 (  5783 PWs)   bands (ev):

   -11.2098 -10.4763  -6.7535  -6.2634  -6.1716   0.7344   1.6189   1.6911
     2.4397

          k = 0.0000-0.5774 0.0000 (  5782 PWs)   bands (ev):

   -11.7414 -10.2371  -6.9738  -6.0392  -4.7003  -1.0034   0.4206   1.5883
     3.3496

     the Fermi energy is    -3.0757 ev

!    total energy              =     -25.15636680 Ry
     estimated scf accuracy    <       0.00000042 Ry
     smearing contrib. (-TS)   =       0.00001841 Ry
     internal energy E=F+TS    =     -25.15638521 Ry

     The total energy is F=E-TS. E is the sum of the following terms:
     one-electron contribution =    -112.77732396 Ry
     hartree contribution      =      57.76903807 Ry
     xc contribution           =     -13.74025003 Ry
     ewald contribution        =      43.59215071 Ry

     convergence has been achieved in   6 iterations

     negative rho (up, down):  9.887E-05 0.000E+00

     Forces acting on atoms (cartesian axes, Ry/au):

     atom    1 type  2   force =     0.00000000   -0.00001209   -0.02535953
     atom    2 type  1   force =     0.00000000   -0.00120064    0.00572563
     atom    3 type  1   force =     0.00000000    0.00119777   -0.00566677
     atom    4 type  2   force =     0.00000000    0.00001496    0.02530067

     Total force =     0.036756     Total SCF correction =     0.001062

     BFGS Geometry Optimization

     number of scf cycles    =   1
     number of bfgs steps    =   0

     energy   new            =     -25.1563667972 Ry

     new trust radius        =       0.0253595291 bohr

     The maximum number of steps has been reached.

     End of BFGS Geometry Optimization

ATOMIC_POSITIONS (crystal)
H            -0.0000009718       -0.0000009718       -0.0006865271
Si           -0.0000965348       -0.0000965348        0.0751550029
Si            0.3330963038        0.3330963038        0.1108465905
H             0.3330012029        0.3330012029        0.1866849338



     Writing output data file /home/jesus/Documentos/Nanociencia_DFT/silicano.save/
     NEW-OLD atomic charge density approx. for the potential

     negative rho (up, down):  9.752E-05 0.000E+00

     Writing output data file /home/jesus/Documentos/Nanociencia_DFT/silicano.save/
 
     init_run     :      2.06s CPU      2.27s WALL (       1 calls)
     electrons    :     22.13s CPU     23.52s WALL (       1 calls)
     update_pot   :      0.56s CPU      0.56s WALL (       1 calls)
     forces       :      1.15s CPU      1.31s WALL (       1 calls)

     Called by init_run:
     wfcinit      :      0.85s CPU      0.85s WALL (       1 calls)
     potinit      :      0.28s CPU      0.30s WALL (       1 calls)
     hinit0       :      0.61s CPU      0.64s WALL (       1 calls)

     Called by electrons:
     c_bands      :     15.78s CPU     15.85s WALL (       6 calls)
     sum_band     :      4.15s CPU      4.79s WALL (       6 calls)
     v_of_rho     :      0.85s CPU      0.90s WALL (       8 calls)
     newd         :      1.84s CPU      2.76s WALL (       8 calls)
     mix_rho      :      0.09s CPU      0.09s WALL (       6 calls)

     Called by c_bands:
     init_us_2    :      0.62s CPU      0.63s WALL (     294 calls)
     cegterg      :     13.34s CPU     13.40s WALL (     126 calls)

     Called by *egterg:
     cdiaghg      :      0.10s CPU      0.10s WALL (     624 calls)
     h_psi        :     12.32s CPU     12.36s WALL (     645 calls)
     s_psi        :      0.47s CPU      0.47s WALL (     645 calls)
     g_psi        :      0.05s CPU      0.05s WALL (     498 calls)

     Called by h_psi:
     h_psi:calbec :      0.50s CPU      0.50s WALL (     645 calls)
     vloc_psi     :     11.27s CPU     11.31s WALL (     645 calls)
     add_vuspsi   :      0.48s CPU      0.48s WALL (     645 calls)

     General routines
     calbec       :      0.72s CPU      0.72s WALL (     855 calls)
     fft          :      0.38s CPU      0.41s WALL (     114 calls)
     ffts         :      0.02s CPU      0.02s WALL (      14 calls)
     fftw         :     11.38s CPU     11.42s WALL (    8292 calls)
     interpolate  :      0.05s CPU      0.05s WALL (       8 calls)
     davcio       :      0.00s CPU      0.04s WALL (      21 calls)
 
     Parallel routines
 
     PWSCF        :     27.06s CPU     29.08s WALL

 
   This run was terminated on:  23: 0:26   1Apr2021            

=------------------------------------------------------------------------------=
   JOB DONE.
=------------------------------------------------------------------------------=
