
     Program PWSCF v.6.6 starts on  1Apr2021 at 23:53:58 

     This program is part of the open-source Quantum ESPRESSO suite
     for quantum simulation of materials; please cite
         "P. Giannozzi et al., J. Phys.:Condens. Matter 21 395502 (2009);
         "P. Giannozzi et al., J. Phys.:Condens. Matter 29 465901 (2017);
          URL http://www.quantum-espresso.org", 
     in publications or presentations arising from this work. More details at
     http://www.quantum-espresso.org/quote

     Parallel version (MPI), running on     1 processors

     MPI processes distributed on     1 nodes
     Fft bands division:     nmany     =       1
     Waiting for input...
     Reading input from standard input
Warning: card &CELL ignored
Warning: card   CELL_DYNAMICS='BFGS', ignored
Warning: card   CELL_DOFREE='ALL', ignored
Warning: card / ignored

     Current dimensions of program PWSCF are:
     Max number of different atomic species (ntypx) = 10
     Max number of k-points (npk) =  40000
     Max angular momentum in pseudopotentials (lmaxx) =  3

     File /home/jesus/Documentos/Nanociencia_DFT/silicano.update deleted, as requested

     File /home/jesus/Documentos/Nanociencia_DFT/silicano.bfgs deleted, as requested

     Subspace diagonalization in iterative solution of the eigenvalue problem:
     a serial algorithm will be used

     Message from routine setup:
     using ibrav=0 with symmetry is DISCOURAGED, use correct ibrav instead
 
     G-vector sticks info
     --------------------
     sticks:   dense  smooth     PW     G-vecs:    dense   smooth      PW
     Sum         769     511    163                90931    49505    8835
 


     bravais-lattice index     =            0
     lattice parameter (alat)  =       7.3567  a.u.
     unit-cell volume          =    1773.6530 (a.u.)^3
     number of atoms/cell      =            4
     number of atomic types    =            2
     number of electrons       =        10.00
     number of Kohn-Sham states=            9
     kinetic-energy cutoff     =      35.0000  Ry
     charge density cutoff     =     210.0000  Ry
     convergence threshold     =      1.0E-06
     mixing beta               =       0.7000
     number of iterations used =            8  plain     mixing
     Exchange-correlation= PBE
                           (   1   4   3   4   0   0   0)
     nstep                     =            1


     celldm(1)=   7.356704  celldm(2)=   0.000000  celldm(3)=   0.000000
     celldm(4)=   0.000000  celldm(5)=   0.000000  celldm(6)=   0.000000

     crystal axes: (cart. coord. in units of alat)
               a(1) = (   0.500000   0.866000   0.000000 )  
               a(2) = (  -0.500000   0.866000   0.000000 )  
               a(3) = (   0.000000   0.000000   5.144000 )  

     reciprocal axes: (cart. coord. in units 2 pi/alat)
               b(1) = (  1.000000  0.577367  0.000000 )  
               b(2) = ( -1.000000  0.577367  0.000000 )  
               b(3) = (  0.000000  0.000000  0.194401 )  


     PseudoPot. # 1 for Si read from file:
     /home/jesus/Nanociencia_DFT/pseudopotenciales/Si.pbe-n-rrkjus_psl.1.0.0.UPF
     MD5 check sum: fa25574f73a70a4139f2adfbefec430c
     Pseudo is Ultrasoft + core correction, Zval =  4.0
     Generated using "atomic" code by A. Dal Corso v.6.3
     Using radial grid of 1141 points,  6 beta functions with: 
                l(1) =   0
                l(2) =   0
                l(3) =   1
                l(4) =   1
                l(5) =   2
                l(6) =   2
     Q(r) pseudized with 0 coefficients 


     PseudoPot. # 2 for H  read from file:
     /home/jesus/Nanociencia_DFT/pseudopotenciales/H.pbe-rrkjus_psl.1.0.0.UPF
     MD5 check sum: 3f4114867bd07edc7f1424d066fc1888
     Pseudo is Ultrasoft, Zval =  1.0
     Generated using "atomic" code by A. Dal Corso v.6.3MaX
     Using radial grid of  929 points,  2 beta functions with: 
                l(1) =   0
                l(2) =   0
     Q(r) pseudized with 0 coefficients 


     atomic species   valence    mass     pseudopotential
        Si             4.00    28.08550     Si( 1.00)
        H              1.00     1.00800     H ( 1.00)

      2 Sym. Ops. (no inversion) found



   Cartesian axes

     site n.     atom                  positions (alat units)
         1           H   tau(   1) = (   0.0000000   0.0000000   0.0000000  )
         2           Si  tau(   2) = (   0.0000000   0.0000000   0.3858000  )
         3           Si  tau(   3) = (   0.0000000   0.5767560   0.5709840  )
         4           H   tau(   4) = (   0.0000000   0.5767560   0.9567840  )

     number of k points=    21  Methfessel-Paxton smearing, width (Ry)=  0.0100
                       cart. coord. in units 2pi/alat
        k(    1) = (   0.0000000   0.0000000   0.0000000), wk =   0.0312500
        k(    2) = (  -0.1250000   0.0721709   0.0000000), wk =   0.1250000
        k(    3) = (  -0.2500000   0.1443418   0.0000000), wk =   0.1250000
        k(    4) = (  -0.3750000   0.2165127   0.0000000), wk =   0.1250000
        k(    5) = (   0.5000000  -0.2886836   0.0000000), wk =   0.0625000
        k(    6) = (   0.0000000   0.1443418   0.0000000), wk =   0.0625000
        k(    7) = (  -0.1250000   0.2165127   0.0000000), wk =   0.1250000
        k(    8) = (  -0.2500000   0.2886836   0.0000000), wk =   0.1250000
        k(    9) = (   0.6250000  -0.2165127   0.0000000), wk =   0.1250000
        k(   10) = (   0.5000000  -0.1443418   0.0000000), wk =   0.1250000
        k(   11) = (   0.3750000  -0.0721709   0.0000000), wk =   0.1250000
        k(   12) = (   0.2500000   0.0000000   0.0000000), wk =   0.0625000
        k(   13) = (   0.0000000   0.2886836   0.0000000), wk =   0.0625000
        k(   14) = (  -0.1250000   0.3608545   0.0000000), wk =   0.1250000
        k(   15) = (   0.7500000  -0.1443418   0.0000000), wk =   0.1250000
        k(   16) = (   0.6250000  -0.0721709   0.0000000), wk =   0.1250000
        k(   17) = (   0.5000000   0.0000000   0.0000000), wk =   0.0625000
        k(   18) = (   0.0000000   0.4330254   0.0000000), wk =   0.0625000
        k(   19) = (   0.8750000  -0.0721709   0.0000000), wk =   0.1250000
        k(   20) = (   0.7500000   0.0000000   0.0000000), wk =   0.0625000
        k(   21) = (   0.0000000  -0.5773672   0.0000000), wk =   0.0312500

     Dense  grid:    90931 G-vectors     FFT dimensions: (  36,  36, 180)

     Smooth grid:    49505 G-vectors     FFT dimensions: (  27,  27, 144)

     Estimated max dynamical RAM per process >     345.46 MB

     Initial potential from superposition of free atoms

     starting charge    9.99886, renormalised to   10.00000

     negative rho (up, down):  1.000E-04 0.000E+00
     Starting wfcs are   10 randomized atomic wfcs

     total cpu time spent up to now is        2.9 secs

     Self-consistent Calculation

     iteration #  1     ecut=    35.00 Ry     beta= 0.70
     Davidson diagonalization with overlap
     ethr =  1.00E-02,  avg # of iterations =  3.4

     negative rho (up, down):  7.978E-05 0.000E+00

     total cpu time spent up to now is        6.7 secs

     total energy              =     -25.15084656 Ry
     estimated scf accuracy    <       0.16468644 Ry

     iteration #  2     ecut=    35.00 Ry     beta= 0.70
     Davidson diagonalization with overlap
     ethr =  1.65E-03,  avg # of iterations =  1.5

     negative rho (up, down):  9.591E-05 0.000E+00

     total cpu time spent up to now is        9.7 secs

     total energy              =     -25.16063738 Ry
     estimated scf accuracy    <       0.00466408 Ry

     iteration #  3     ecut=    35.00 Ry     beta= 0.70
     Davidson diagonalization with overlap
     c_bands:  1 eigenvalues not converged
     ethr =  4.66E-05,  avg # of iterations =  8.6

     negative rho (up, down):  9.809E-05 0.000E+00

     total cpu time spent up to now is       14.3 secs

     total energy              =     -25.16142613 Ry
     estimated scf accuracy    <       0.00026563 Ry

     iteration #  4     ecut=    35.00 Ry     beta= 0.70
     Davidson diagonalization with overlap
     c_bands:  1 eigenvalues not converged
     ethr =  2.66E-06,  avg # of iterations =  5.6

     negative rho (up, down):  1.015E-04 0.000E+00

     total cpu time spent up to now is       18.1 secs

     total energy              =     -25.16147010 Ry
     estimated scf accuracy    <       0.00002416 Ry

     iteration #  5     ecut=    35.00 Ry     beta= 0.70
     Davidson diagonalization with overlap
     ethr =  2.42E-07,  avg # of iterations =  2.2

     negative rho (up, down):  1.015E-04 0.000E+00

     total cpu time spent up to now is       21.2 secs

     total energy              =     -25.16147297 Ry
     estimated scf accuracy    <       0.00000409 Ry

     iteration #  6     ecut=    35.00 Ry     beta= 0.70
     Davidson diagonalization with overlap
     ethr =  4.09E-08,  avg # of iterations =  1.4

     negative rho (up, down):  1.017E-04 0.000E+00

     total cpu time spent up to now is       24.0 secs

     End of self-consistent calculation

          k = 0.0000 0.0000 0.0000 (  6083 PWs)   bands (ev):

   -13.6919  -9.1414  -5.8812  -3.3994  -3.3840  -1.0692   0.5235   0.5402
     0.7808

          k =-0.1250 0.0722 0.0000 (  6168 PWs)   bands (ev):

   -13.5225  -9.1021  -5.8810  -4.5407  -3.7024  -0.4755   0.5751   1.0790
     1.1393

          k =-0.2500 0.1443 0.0000 (  6194 PWs)   bands (ev):

   -13.0276  -9.1195  -6.1412  -5.8421  -4.2494  -0.8214   1.1006   1.3718
     2.1576

          k =-0.3750 0.2165 0.0000 (  6224 PWs)   bands (ev):

   -12.2763  -9.6198  -6.8698  -5.9959  -4.6581  -1.1311   0.6410   1.3364
     2.9953

          k = 0.5000-0.2887 0.0000 (  6214 PWs)   bands (ev):

   -11.7036 -10.2153  -6.9482  -6.0970  -4.8033  -1.2046   0.2842   1.3188
     3.0116

          k = 0.0000 0.1443 0.0000 (  6168 PWs)   bands (ev):

   -13.5223  -9.1022  -5.8813  -4.5486  -3.6930  -0.4725   0.5790   1.0790
     1.1292

          k =-0.1250 0.2165 0.0000 (  6163 PWs)   bands (ev):

   -13.1892  -9.0849  -5.9065  -5.6063  -4.3587   0.1795   0.4303   1.2767
     1.6380

          k =-0.2500 0.2887 0.0000 (  6210 PWs)   bands (ev):

   -12.5550  -9.3352  -6.5577  -5.9957  -5.0526  -0.0656   1.1086   1.2789
     2.0405

          k = 0.6250-0.2165 0.0000 (  6227 PWs)   bands (ev):

   -11.7716 -10.0531  -6.8610  -6.1070  -5.4085  -0.1562   0.5144   1.3327
     2.2585

          k = 0.5000-0.1443 0.0000 (  6227 PWs)   bands (ev):

   -11.7726 -10.0515  -6.8613  -6.1056  -5.4106  -0.1551   0.5134   1.3329
     2.2580

          k = 0.3750-0.0722 0.0000 (  6210 PWs)   bands (ev):

   -12.5560  -9.3333  -6.5558  -5.9938  -5.0583  -0.0640   1.1103   1.2763
     2.0385

          k = 0.2500 0.0000 0.0000 (  6163 PWs)   bands (ev):

   -13.1897  -9.0841  -5.9058  -5.5986  -4.3688   0.1843   0.4210   1.2789
     1.6373

          k = 0.0000 0.2887 0.0000 (  6194 PWs)   bands (ev):

   -13.0267  -9.1209  -6.1462  -5.8432  -4.2426  -0.8150   1.1006   1.3712
     2.3798

          k =-0.1250 0.3609 0.0000 (  6210 PWs)   bands (ev):

   -12.5541  -9.3370  -6.5601  -5.9955  -5.0497  -0.0594   1.1088   1.2771
     2.0391

          k = 0.7500-0.1443 0.0000 (  6225 PWs)   bands (ev):

   -11.8296  -9.8936  -6.5796  -6.3683  -5.8463   0.7490   1.0359   1.8032
     2.1569

          k = 0.6250-0.0722 0.0000 (  6207 PWs)   bands (ev):

   -11.1996 -10.4819  -6.7043  -6.2695  -6.2215   0.6116   1.3824   1.4530
     2.0379

          k = 0.5000 0.0000 0.0000 (  6225 PWs)   bands (ev):

   -11.8325  -9.8883  -6.5779  -6.3678  -5.8509   0.7504   1.0355   1.7998
     2.1486

          k = 0.0000 0.4330 0.0000 (  6224 PWs)   bands (ev):

   -12.2734  -9.6254  -6.8712  -5.9978  -4.6525  -1.1249   0.6421   1.3342
     2.9947

          k = 0.8750-0.0722 0.0000 (  6227 PWs)   bands (ev):

   -11.7671 -10.0605  -6.8611  -6.1086  -5.4044  -0.1500   0.5158   1.3299
     2.2588

          k = 0.7500 0.0000 0.0000 (  6209 PWs)   bands (ev):

   -11.1925 -10.4908  -6.7047  -6.2654  -6.2235   0.6125   1.3811   1.4539
     2.0433

          k = 0.0000-0.5774 0.0000 (  6214 PWs)   bands (ev):

   -11.6963 -10.2265  -6.9473  -6.1001  -4.7981  -1.1986   0.2862   1.3153
     3.0120

     the Fermi energy is    -3.2764 ev

!    total energy              =     -25.16147352 Ry
     estimated scf accuracy    <       0.00000044 Ry
     smearing contrib. (-TS)   =       0.00001857 Ry
     internal energy E=F+TS    =     -25.16149209 Ry

     The total energy is F=E-TS. E is the sum of the following terms:
     one-electron contribution =    -110.76791059 Ry
     hartree contribution      =      56.69726285 Ry
     xc contribution           =     -13.64162080 Ry
     ewald contribution        =      42.55077644 Ry

     convergence has been achieved in   6 iterations

     negative rho (up, down):  1.017E-04 0.000E+00

     Forces acting on atoms (cartesian axes, Ry/au):

     atom    1 type  2   force =     0.00000000   -0.00000962   -0.00030673
     atom    2 type  1   force =     0.00000000   -0.00102093    0.00146861
     atom    3 type  1   force =     0.00000000    0.00102194   -0.00121719
     atom    4 type  2   force =     0.00000000    0.00000861    0.00005531

     Total force =     0.002413     Total SCF correction =     0.000495
     SCF correction compared to forces is large: reduce conv_thr to get better values

     BFGS Geometry Optimization

     number of scf cycles    =   1
     number of bfgs steps    =   0

     energy   new            =     -25.1614735202 Ry

     new trust radius        =       0.0017886065 bohr

     The maximum number of steps has been reached.

     End of BFGS Geometry Optimization

ATOMIC_POSITIONS (crystal)
H            -0.0000007550       -0.0000007550       -0.0000081052
Si           -0.0000801244       -0.0000801244        0.0750388081
Si            0.3330802036        0.3330802036        0.1109678356
H             0.3330006758        0.3330006758        0.1860014615



     Writing output data file /home/jesus/Documentos/Nanociencia_DFT/silicano.save/
     NEW-OLD atomic charge density approx. for the potential

     negative rho (up, down):  1.018E-04 0.000E+00

     Writing output data file /home/jesus/Documentos/Nanociencia_DFT/silicano.save/
 
     init_run     :      1.91s CPU      2.11s WALL (       1 calls)
     electrons    :     19.67s CPU     21.07s WALL (       1 calls)
     update_pot   :      0.56s CPU      0.56s WALL (       1 calls)
     forces       :      0.97s CPU      1.05s WALL (       1 calls)

     Called by init_run:
     wfcinit      :      0.76s CPU      0.79s WALL (       1 calls)
     potinit      :      0.29s CPU      0.31s WALL (       1 calls)
     hinit0       :      0.57s CPU      0.60s WALL (       1 calls)

     Called by electrons:
     c_bands      :     13.84s CPU     13.88s WALL (       6 calls)
     sum_band     :      3.71s CPU      4.37s WALL (       6 calls)
     v_of_rho     :      0.83s CPU      0.87s WALL (       8 calls)
     newd         :      1.80s CPU      2.69s WALL (       8 calls)
     mix_rho      :      0.08s CPU      0.08s WALL (       6 calls)

     Called by c_bands:
     init_us_2    :      0.62s CPU      0.62s WALL (     294 calls)
     cegterg      :     11.37s CPU     11.41s WALL (     126 calls)

     Called by *egterg:
     cdiaghg      :      0.09s CPU      0.09s WALL (     603 calls)
     h_psi        :     10.39s CPU     10.44s WALL (     624 calls)
     s_psi        :      0.44s CPU      0.45s WALL (     624 calls)
     g_psi        :      0.05s CPU      0.05s WALL (     477 calls)

     Called by h_psi:
     h_psi:calbec :      0.49s CPU      0.49s WALL (     624 calls)
     vloc_psi     :      9.38s CPU      9.43s WALL (     624 calls)
     add_vuspsi   :      0.46s CPU      0.46s WALL (     624 calls)

     General routines
     calbec       :      0.70s CPU      0.71s WALL (     834 calls)
     fft          :      0.35s CPU      0.37s WALL (     114 calls)
     ffts         :      0.02s CPU      0.02s WALL (      14 calls)
     fftw         :      9.65s CPU      9.70s WALL (    8154 calls)
     interpolate  :      0.05s CPU      0.05s WALL (       8 calls)
     davcio       :      0.00s CPU      0.01s WALL (      21 calls)
 
     Parallel routines
 
     PWSCF        :     24.14s CPU     26.00s WALL

 
   This run was terminated on:  23:54:24   1Apr2021            

=------------------------------------------------------------------------------=
   JOB DONE.
=------------------------------------------------------------------------------=
