
     Program PWSCF v.6.6 starts on  1Apr2021 at 23: 4: 3 

     This program is part of the open-source Quantum ESPRESSO suite
     for quantum simulation of materials; please cite
         "P. Giannozzi et al., J. Phys.:Condens. Matter 21 395502 (2009);
         "P. Giannozzi et al., J. Phys.:Condens. Matter 29 465901 (2017);
          URL http://www.quantum-espresso.org", 
     in publications or presentations arising from this work. More details at
     http://www.quantum-espresso.org/quote

     Parallel version (MPI), running on     1 processors

     MPI processes distributed on     1 nodes
     Fft bands division:     nmany     =       1
     Waiting for input...
     Reading input from standard input
Warning: card &CELL ignored
Warning: card   CELL_DYNAMICS='BFGS', ignored
Warning: card   CELL_DOFREE='ALL', ignored
Warning: card / ignored

     Current dimensions of program PWSCF are:
     Max number of different atomic species (ntypx) = 10
     Max number of k-points (npk) =  40000
     Max angular momentum in pseudopotentials (lmaxx) =  3

     File /home/jesus/Documentos/Nanociencia_DFT/silicano.update deleted, as requested

     File /home/jesus/Documentos/Nanociencia_DFT/silicano.bfgs deleted, as requested

     Subspace diagonalization in iterative solution of the eigenvalue problem:
     a serial algorithm will be used

     Message from routine setup:
     using ibrav=0 with symmetry is DISCOURAGED, use correct ibrav instead
 
     G-vector sticks info
     --------------------
     sticks:   dense  smooth     PW     G-vecs:    dense   smooth      PW
     Sum        1039     691    211               140907    76503   12997
 


     bravais-lattice index     =            0
     lattice parameter (alat)  =       8.5038  a.u.
     unit-cell volume          =    2739.3845 (a.u.)^3
     number of atoms/cell      =            4
     number of atomic types    =            2
     number of electrons       =        10.00
     number of Kohn-Sham states=            9
     kinetic-energy cutoff     =      35.0000  Ry
     charge density cutoff     =     210.0000  Ry
     convergence threshold     =      1.0E-06
     mixing beta               =       0.7000
     number of iterations used =            8  plain     mixing
     Exchange-correlation= PBE
                           (   1   4   3   4   0   0   0)
     nstep                     =            1


     celldm(1)=   8.503768  celldm(2)=   0.000000  celldm(3)=   0.000000
     celldm(4)=   0.000000  celldm(5)=   0.000000  celldm(6)=   0.000000

     crystal axes: (cart. coord. in units of alat)
               a(1) = (   0.500000   0.866000   0.000000 )  
               a(2) = (  -0.500000   0.866000   0.000000 )  
               a(3) = (   0.000000   0.000000   5.144000 )  

     reciprocal axes: (cart. coord. in units 2 pi/alat)
               b(1) = (  1.000000  0.577367  0.000000 )  
               b(2) = ( -1.000000  0.577367  0.000000 )  
               b(3) = (  0.000000  0.000000  0.194401 )  


     PseudoPot. # 1 for Si read from file:
     /home/jesus/Nanociencia_DFT/pseudopotenciales/Si.pbe-n-rrkjus_psl.1.0.0.UPF
     MD5 check sum: fa25574f73a70a4139f2adfbefec430c
     Pseudo is Ultrasoft + core correction, Zval =  4.0
     Generated using "atomic" code by A. Dal Corso v.6.3
     Using radial grid of 1141 points,  6 beta functions with: 
                l(1) =   0
                l(2) =   0
                l(3) =   1
                l(4) =   1
                l(5) =   2
                l(6) =   2
     Q(r) pseudized with 0 coefficients 


     PseudoPot. # 2 for H  read from file:
     /home/jesus/Nanociencia_DFT/pseudopotenciales/H.pbe-rrkjus_psl.1.0.0.UPF
     MD5 check sum: 3f4114867bd07edc7f1424d066fc1888
     Pseudo is Ultrasoft, Zval =  1.0
     Generated using "atomic" code by A. Dal Corso v.6.3MaX
     Using radial grid of  929 points,  2 beta functions with: 
                l(1) =   0
                l(2) =   0
     Q(r) pseudized with 0 coefficients 


     atomic species   valence    mass     pseudopotential
        Si             4.00    28.08550     Si( 1.00)
        H              1.00     1.00800     H ( 1.00)

      2 Sym. Ops. (no inversion) found



   Cartesian axes

     site n.     atom                  positions (alat units)
         1           H   tau(   1) = (   0.0000000   0.0000000   0.0000000  )
         2           Si  tau(   2) = (   0.0000000   0.0000000   0.3858000  )
         3           Si  tau(   3) = (   0.0000000   0.5767560   0.5709840  )
         4           H   tau(   4) = (   0.0000000   0.5767560   0.9567840  )

     number of k points=    21  Methfessel-Paxton smearing, width (Ry)=  0.0100
                       cart. coord. in units 2pi/alat
        k(    1) = (   0.0000000   0.0000000   0.0000000), wk =   0.0312500
        k(    2) = (  -0.1250000   0.0721709   0.0000000), wk =   0.1250000
        k(    3) = (  -0.2500000   0.1443418   0.0000000), wk =   0.1250000
        k(    4) = (  -0.3750000   0.2165127   0.0000000), wk =   0.1250000
        k(    5) = (   0.5000000  -0.2886836   0.0000000), wk =   0.0625000
        k(    6) = (   0.0000000   0.1443418   0.0000000), wk =   0.0625000
        k(    7) = (  -0.1250000   0.2165127   0.0000000), wk =   0.1250000
        k(    8) = (  -0.2500000   0.2886836   0.0000000), wk =   0.1250000
        k(    9) = (   0.6250000  -0.2165127   0.0000000), wk =   0.1250000
        k(   10) = (   0.5000000  -0.1443418   0.0000000), wk =   0.1250000
        k(   11) = (   0.3750000  -0.0721709   0.0000000), wk =   0.1250000
        k(   12) = (   0.2500000   0.0000000   0.0000000), wk =   0.0625000
        k(   13) = (   0.0000000   0.2886836   0.0000000), wk =   0.0625000
        k(   14) = (  -0.1250000   0.3608545   0.0000000), wk =   0.1250000
        k(   15) = (   0.7500000  -0.1443418   0.0000000), wk =   0.1250000
        k(   16) = (   0.6250000  -0.0721709   0.0000000), wk =   0.1250000
        k(   17) = (   0.5000000   0.0000000   0.0000000), wk =   0.0625000
        k(   18) = (   0.0000000   0.4330254   0.0000000), wk =   0.0625000
        k(   19) = (   0.8750000  -0.0721709   0.0000000), wk =   0.1250000
        k(   20) = (   0.7500000   0.0000000   0.0000000), wk =   0.0625000
        k(   21) = (   0.0000000  -0.5773672   0.0000000), wk =   0.0312500

     Dense  grid:   140907 G-vectors     FFT dimensions: (  40,  40, 216)

     Smooth grid:    76503 G-vectors     FFT dimensions: (  36,  36, 180)

     Estimated max dynamical RAM per process >     532.84 MB

     Initial potential from superposition of free atoms

     starting charge    9.99886, renormalised to   10.00000

     negative rho (up, down):  1.359E-04 0.000E+00
     Starting wfcs are   10 randomized atomic wfcs

     total cpu time spent up to now is        4.7 secs

     Self-consistent Calculation

     iteration #  1     ecut=    35.00 Ry     beta= 0.70
     Davidson diagonalization with overlap
     ethr =  1.00E-02,  avg # of iterations =  2.7

     negative rho (up, down):  8.876E-05 0.000E+00

     total cpu time spent up to now is       12.4 secs

     total energy              =     -25.01034994 Ry
     estimated scf accuracy    <       0.10664884 Ry

     iteration #  2     ecut=    35.00 Ry     beta= 0.70
     Davidson diagonalization with overlap
     ethr =  1.07E-03,  avg # of iterations =  2.0

     negative rho (up, down):  1.037E-04 0.000E+00

     total cpu time spent up to now is       18.8 secs

     total energy              =     -25.02175493 Ry
     estimated scf accuracy    <       0.01477058 Ry

     iteration #  3     ecut=    35.00 Ry     beta= 0.70
     Davidson diagonalization with overlap
     ethr =  1.48E-04,  avg # of iterations =  3.6

     negative rho (up, down):  1.137E-04 0.000E+00

     total cpu time spent up to now is       26.3 secs

     total energy              =     -25.02520767 Ry
     estimated scf accuracy    <       0.00193276 Ry

     iteration #  4     ecut=    35.00 Ry     beta= 0.70
     Davidson diagonalization with overlap
     ethr =  1.93E-05,  avg # of iterations =  4.5

     negative rho (up, down):  1.158E-04 0.000E+00

     total cpu time spent up to now is       33.5 secs

     total energy              =     -25.02544045 Ry
     estimated scf accuracy    <       0.00003668 Ry

     iteration #  5     ecut=    35.00 Ry     beta= 0.70
     Davidson diagonalization with overlap
     ethr =  3.67E-07,  avg # of iterations =  4.1

     negative rho (up, down):  1.164E-04 0.000E+00

     total cpu time spent up to now is       41.8 secs

     total energy              =     -25.02546244 Ry
     estimated scf accuracy    <       0.00001024 Ry

     iteration #  6     ecut=    35.00 Ry     beta= 0.70
     Davidson diagonalization with overlap
     ethr =  1.02E-07,  avg # of iterations =  1.9

     negative rho (up, down):  1.164E-04 0.000E+00

     total cpu time spent up to now is       47.9 secs

     End of self-consistent calculation

          k = 0.0000 0.0000 0.0000 (  9455 PWs)   bands (ev):

   -12.6984  -9.0684  -6.1859  -4.2465  -4.2333  -3.7197  -0.9076  -0.8919
    -0.6343

          k =-0.1250 0.0722 0.0000 (  9504 PWs)   bands (ev):

   -12.5847  -9.1222  -6.1929  -5.2899  -4.4262  -2.7117  -0.9360  -0.5626
    -0.5347

          k =-0.2500 0.1443 0.0000 (  9554 PWs)   bands (ev):

   -12.2561  -9.3627  -6.2766  -6.1666  -4.7753  -2.3549  -0.5707  -0.2297
     0.2410

          k =-0.3750 0.2165 0.0000 (  9580 PWs)   bands (ev):

   -11.7723  -9.8653  -6.6541  -6.2789  -5.0491  -2.4835  -0.5557  -0.0936
     0.8404

          k = 0.5000-0.2887 0.0000 (  9586 PWs)   bands (ev):

   -11.4332 -10.2443  -6.7330  -6.3258  -5.1483  -2.5424  -0.6493  -0.1218
     1.0047

          k = 0.0000 0.1443 0.0000 (  9504 PWs)   bands (ev):

   -12.5845  -9.1226  -6.1931  -5.2959  -4.4178  -2.7128  -0.9274  -0.5624
    -0.5447

          k =-0.1250 0.2165 0.0000 (  9564 PWs)   bands (ev):

   -12.3624  -9.2708  -6.2163  -5.9814  -4.8097  -1.9919  -0.9972  -0.4736
     0.2259

          k =-0.2500 0.2887 0.0000 (  9579 PWs)   bands (ev):

   -11.9462  -9.6608  -6.4888  -6.2697  -5.2633  -1.7724  -0.5834  -0.2433
     0.5044

          k = 0.6250-0.2165 0.0000 (  9595 PWs)   bands (ev):

   -11.4556 -10.1939  -6.6669  -6.3321  -5.5093  -1.8581  -0.5703  -0.0565
     0.5925

          k = 0.5000-0.1443 0.0000 (  9595 PWs)   bands (ev):

   -11.4566 -10.1924  -6.6668  -6.3313  -5.5109  -1.8575  -0.5703  -0.0550
     0.5902

          k = 0.3750-0.0722 0.0000 (  9579 PWs)   bands (ev):

   -11.9472  -9.6587  -6.4871  -6.2685  -5.2684  -1.7697  -0.5859  -0.2420
     0.4993

          k = 0.2500 0.0000 0.0000 (  9564 PWs)   bands (ev):

   -12.3630  -9.2694  -6.2158  -5.9759  -4.8182  -1.9880  -1.0071  -0.4729
     0.2311

          k = 0.0000 0.2887 0.0000 (  9554 PWs)   bands (ev):

   -12.2551  -9.3648  -6.2802  -6.1680  -4.7690  -2.3499  -0.5698  -0.2274
     0.2344

          k =-0.1250 0.3609 0.0000 (  9579 PWs)   bands (ev):

   -11.9451  -9.6628  -6.4912  -6.2694  -5.2607  -1.7669  -0.5836  -0.2430
     0.4994

          k = 0.7500-0.1443 0.0000 (  9616 PWs)   bands (ev):

   -11.4755 -10.1459  -6.5392  -6.3761  -5.8281  -0.8308  -0.5806  -0.1716
     0.5195

          k = 0.6250-0.0722 0.0000 (  9636 PWs)   bands (ev):

   -11.0792 -10.5535  -6.5441  -6.3953  -6.0584  -0.7588  -0.4598   0.0938
     0.3247

          k = 0.5000 0.0000 0.0000 (  9616 PWs)   bands (ev):

   -11.4785 -10.1411  -6.5374  -6.3743  -5.8337  -0.8275  -0.5859  -0.1670
     0.5131

          k = 0.0000 0.4330 0.0000 (  9580 PWs)   bands (ev):

   -11.7691  -9.8710  -6.6566  -6.2797  -5.0439  -2.4771  -0.5555  -0.0927
     0.8373

          k = 0.8750-0.0722 0.0000 (  9595 PWs)   bands (ev):

   -11.4511 -10.2007  -6.6686  -6.3327  -5.5052  -1.8527  -0.5698  -0.0544
     0.5901

          k = 0.7500 0.0000 0.0000 (  9636 PWs)   bands (ev):

   -11.0727 -10.5612  -6.5458  -6.3959  -6.0549  -0.7583  -0.4587   0.0931
     0.3284

          k = 0.0000-0.5774 0.0000 (  9586 PWs)   bands (ev):

   -11.4264 -10.2543  -6.7344  -6.3271  -5.1435  -2.5358  -0.6489  -0.1210
     1.0030

     the Fermi energy is    -4.1333 ev

!    total energy              =     -25.02546422 Ry
     estimated scf accuracy    <       0.00000016 Ry
     smearing contrib. (-TS)   =       0.00003342 Ry
     internal energy E=F+TS    =     -25.02549764 Ry

     The total energy is F=E-TS. E is the sum of the following terms:
     one-electron contribution =     -99.35540089 Ry
     hartree contribution      =      50.65261456 Ry
     xc contribution           =     -13.13386079 Ry
     ewald contribution        =      36.81114948 Ry

     convergence has been achieved in   6 iterations

     negative rho (up, down):  1.164E-04 0.000E+00

     Forces acting on atoms (cartesian axes, Ry/au):

     atom    1 type  2   force =     0.00000000    0.00001871    0.08753047
     atom    2 type  1   force =     0.00000000   -0.00033660   -0.02581630
     atom    3 type  1   force =     0.00000000    0.00033636    0.02580056
     atom    4 type  2   force =     0.00000000   -0.00001847   -0.08751474

     Total force =     0.129046     Total SCF correction =     0.000531

     BFGS Geometry Optimization

     number of scf cycles    =   1
     number of bfgs steps    =   0

     energy   new            =     -25.0254642186 Ry

     new trust radius        =       0.0875304766 bohr

     The maximum number of steps has been reached.

     End of BFGS Geometry Optimization

ATOMIC_POSITIONS (crystal)
H             0.0000012704        0.0000012704        0.0020009993
Si           -0.0000228537       -0.0000228537        0.0744098239
Si            0.3330228372        0.3330228372        0.1115898163
H             0.3329987461        0.3329987461        0.1839993604



     Writing output data file /home/jesus/Documentos/Nanociencia_DFT/silicano.save/
     NEW-OLD atomic charge density approx. for the potential

     negative rho (up, down):  1.204E-04 0.000E+00

     Writing output data file /home/jesus/Documentos/Nanociencia_DFT/silicano.save/
 
     init_run     :      3.39s CPU      3.76s WALL (       1 calls)
     electrons    :     40.99s CPU     43.36s WALL (       1 calls)
     update_pot   :      0.85s CPU      0.86s WALL (       1 calls)
     forces       :      1.38s CPU      1.56s WALL (       1 calls)

     Called by init_run:
     wfcinit      :      1.89s CPU      1.93s WALL (       1 calls)
     potinit      :      0.44s CPU      0.51s WALL (       1 calls)
     hinit0       :      0.65s CPU      0.68s WALL (       1 calls)

     Called by electrons:
     c_bands      :     29.74s CPU     29.79s WALL (       6 calls)
     sum_band     :      8.02s CPU      9.10s WALL (       6 calls)
     v_of_rho     :      1.18s CPU      1.25s WALL (       8 calls)
     newd         :      2.86s CPU      4.33s WALL (       8 calls)
     mix_rho      :      0.13s CPU      0.13s WALL (       6 calls)

     Called by c_bands:
     init_us_2    :      1.00s CPU      1.00s WALL (     294 calls)
     cegterg      :     25.90s CPU     25.95s WALL (     126 calls)

     Called by *egterg:
     cdiaghg      :      0.08s CPU      0.08s WALL (     521 calls)
     h_psi        :     25.24s CPU     25.31s WALL (     542 calls)
     s_psi        :      0.66s CPU      0.66s WALL (     542 calls)
     g_psi        :      0.07s CPU      0.07s WALL (     395 calls)

     Called by h_psi:
     h_psi:calbec :      0.72s CPU      0.72s WALL (     542 calls)
     vloc_psi     :     23.77s CPU     23.84s WALL (     542 calls)
     add_vuspsi   :      0.66s CPU      0.66s WALL (     542 calls)

     General routines
     calbec       :      1.05s CPU      1.05s WALL (     752 calls)
     fft          :      0.51s CPU      0.53s WALL (     114 calls)
     ffts         :      0.04s CPU      0.08s WALL (      14 calls)
     fftw         :     23.46s CPU     23.53s WALL (    7738 calls)
     interpolate  :      0.08s CPU      0.13s WALL (       8 calls)
     davcio       :      0.01s CPU      0.14s WALL (      21 calls)
 
     Parallel routines
 
     PWSCF        :     47.97s CPU     51.34s WALL

 
   This run was terminated on:  23: 4:54   1Apr2021            

=------------------------------------------------------------------------------=
   JOB DONE.
=------------------------------------------------------------------------------=
