
     Program PWSCF v.6.6 starts on 31Mar2021 at 17: 6:13 

     This program is part of the open-source Quantum ESPRESSO suite
     for quantum simulation of materials; please cite
         "P. Giannozzi et al., J. Phys.:Condens. Matter 21 395502 (2009);
         "P. Giannozzi et al., J. Phys.:Condens. Matter 29 465901 (2017);
          URL http://www.quantum-espresso.org", 
     in publications or presentations arising from this work. More details at
     http://www.quantum-espresso.org/quote

     Parallel version (MPI), running on     1 processors

     MPI processes distributed on     1 nodes
     Fft bands division:     nmany     =       1
     Waiting for input...
     Reading input from standard input
Warning: card &CELL ignored
Warning: card   CELL_DYNAMICS='BFGS', ignored
Warning: card   CELL_DOFREE='ALL', ignored
Warning: card / ignored

     Current dimensions of program PWSCF are:
     Max number of different atomic species (ntypx) = 10
     Max number of k-points (npk) =  40000
     Max angular momentum in pseudopotentials (lmaxx) =  3

     File /home/jesus/Documentos/Nanociencia_DFT/silicano.update deleted, as requested

     File /home/jesus/Documentos/Nanociencia_DFT/silicano.bfgs deleted, as requested
     file H.pbe-kjpaw_psl.1.0.0.UPF: wavefunction(s)  1S renormalized

     Subspace diagonalization in iterative solution of the eigenvalue problem:
     a serial algorithm will be used

     Message from routine setup:
     using ibrav=0 with symmetry is DISCOURAGED, use correct ibrav instead
 
     G-vector sticks info
     --------------------
     sticks:   dense  smooth     PW     G-vecs:    dense   smooth      PW
     Sum         595     397    121                60687    32933    6091
 


     bravais-lattice index     =            0
     lattice parameter (alat)  =       6.4251  a.u.
     unit-cell volume          =    1181.5503 (a.u.)^3
     number of atoms/cell      =            4
     number of atomic types    =            2
     number of electrons       =        10.00
     number of Kohn-Sham states=            9
     kinetic-energy cutoff     =      35.0000  Ry
     charge density cutoff     =     210.0000  Ry
     convergence threshold     =      1.0E-06
     mixing beta               =       0.7000
     number of iterations used =            8  plain     mixing
     Exchange-correlation= SLA PW PBX PBC
                           (   1   4   3   4   0   0   0)
     nstep                     =            1


     celldm(1)=   6.425069  celldm(2)=   0.000000  celldm(3)=   0.000000
     celldm(4)=   0.000000  celldm(5)=   0.000000  celldm(6)=   0.000000

     crystal axes: (cart. coord. in units of alat)
               a(1) = (   0.500000   0.866000   0.000000 )  
               a(2) = (  -0.500000   0.866000   0.000000 )  
               a(3) = (   0.000000   0.000000   5.144000 )  

     reciprocal axes: (cart. coord. in units 2 pi/alat)
               b(1) = (  1.000000  0.577367  0.000000 )  
               b(2) = ( -1.000000  0.577367  0.000000 )  
               b(3) = (  0.000000  0.000000  0.194401 )  


     PseudoPot. # 1 for Si read from file:
     /home/jesus/Nanociencia_DFT/pseudopotenciales/Si.pbe-n-rrkjus_psl.1.0.0.UPF
     MD5 check sum: fa25574f73a70a4139f2adfbefec430c
     Pseudo is Ultrasoft + core correction, Zval =  4.0
     Generated using "atomic" code by A. Dal Corso v.6.3
     Using radial grid of 1141 points,  6 beta functions with: 
                l(1) =   0
                l(2) =   0
                l(3) =   1
                l(4) =   1
                l(5) =   2
                l(6) =   2
     Q(r) pseudized with 0 coefficients 


     PseudoPot. # 2 for H  read from file:
     /home/jesus/Nanociencia_DFT/pseudopotenciales/H.pbe-kjpaw_psl.1.0.0.UPF
     MD5 check sum: d81a744832360e4a8af0b0b5b123bc2a
     Pseudo is Projector augmented-wave, Zval =  1.0
     Generated using "atomic" code by A. Dal Corso v.6.3MaX
     Shape of augmentation charge: PSQ
     Using radial grid of  929 points,  2 beta functions with: 
                l(1) =   0
                l(2) =   0
     Q(r) pseudized with 0 coefficients 


     atomic species   valence    mass     pseudopotential
        Si             4.00    28.08550     Si( 1.00)
        H              1.00     1.00800     H ( 1.00)

      2 Sym. Ops. (no inversion) found



   Cartesian axes

     site n.     atom                  positions (alat units)
         1           H   tau(   1) = (   0.0000000   0.0000000   0.0000000  )
         2           Si  tau(   2) = (   0.0000000   0.0000000   0.3858000  )
         3           Si  tau(   3) = (   0.0000000   0.5767560   0.5709840  )
         4           H   tau(   4) = (   0.0000000   0.5767560   0.9567840  )

     number of k points=    21  Methfessel-Paxton smearing, width (Ry)=  0.0100
                       cart. coord. in units 2pi/alat
        k(    1) = (   0.0000000   0.0000000   0.0000000), wk =   0.0312500
        k(    2) = (  -0.1250000   0.0721709   0.0000000), wk =   0.1250000
        k(    3) = (  -0.2500000   0.1443418   0.0000000), wk =   0.1250000
        k(    4) = (  -0.3750000   0.2165127   0.0000000), wk =   0.1250000
        k(    5) = (   0.5000000  -0.2886836   0.0000000), wk =   0.0625000
        k(    6) = (   0.0000000   0.1443418   0.0000000), wk =   0.0625000
        k(    7) = (  -0.1250000   0.2165127   0.0000000), wk =   0.1250000
        k(    8) = (  -0.2500000   0.2886836   0.0000000), wk =   0.1250000
        k(    9) = (   0.6250000  -0.2165127   0.0000000), wk =   0.1250000
        k(   10) = (   0.5000000  -0.1443418   0.0000000), wk =   0.1250000
        k(   11) = (   0.3750000  -0.0721709   0.0000000), wk =   0.1250000
        k(   12) = (   0.2500000   0.0000000   0.0000000), wk =   0.0625000
        k(   13) = (   0.0000000   0.2886836   0.0000000), wk =   0.0625000
        k(   14) = (  -0.1250000   0.3608545   0.0000000), wk =   0.1250000
        k(   15) = (   0.7500000  -0.1443418   0.0000000), wk =   0.1250000
        k(   16) = (   0.6250000  -0.0721709   0.0000000), wk =   0.1250000
        k(   17) = (   0.5000000   0.0000000   0.0000000), wk =   0.0625000
        k(   18) = (   0.0000000   0.4330254   0.0000000), wk =   0.0625000
        k(   19) = (   0.8750000  -0.0721709   0.0000000), wk =   0.1250000
        k(   20) = (   0.7500000   0.0000000   0.0000000), wk =   0.0625000
        k(   21) = (   0.0000000  -0.5773672   0.0000000), wk =   0.0312500

     Dense  grid:    60687 G-vectors     FFT dimensions: (  30,  30, 160)

     Smooth grid:    32933 G-vectors     FFT dimensions: (  25,  25, 125)

     Estimated max dynamical RAM per process >     230.50 MB

     Initial potential from superposition of free atoms

     starting charge    9.99886, renormalised to   10.00000

     negative rho (up, down):  7.152E-05 0.000E+00
     Starting wfcs are   10 randomized atomic wfcs
     Checking if some PAW data can be deallocated... 

     total cpu time spent up to now is        2.5 secs

     Self-consistent Calculation

     iteration #  1     ecut=    35.00 Ry     beta= 0.70
     Davidson diagonalization with overlap
     ethr =  1.00E-02,  avg # of iterations =  5.0

     negative rho (up, down):  5.870E-05 0.000E+00

     total cpu time spent up to now is        5.8 secs

     total energy              =     -24.93611851 Ry
     estimated scf accuracy    <       0.28203179 Ry

     iteration #  2     ecut=    35.00 Ry     beta= 0.70
     Davidson diagonalization with overlap
     ethr =  2.82E-03,  avg # of iterations =  1.9

     negative rho (up, down):  8.265E-05 0.000E+00

     total cpu time spent up to now is        8.2 secs

     total energy              =     -24.95939685 Ry
     estimated scf accuracy    <       0.00511684 Ry

     iteration #  3     ecut=    35.00 Ry     beta= 0.70
     Davidson diagonalization with overlap
     ethr =  5.12E-05,  avg # of iterations =  9.3

     negative rho (up, down):  9.131E-05 0.000E+00

     total cpu time spent up to now is       12.2 secs

     total energy              =     -24.96049716 Ry
     estimated scf accuracy    <       0.00021937 Ry

     iteration #  4     ecut=    35.00 Ry     beta= 0.70
     Davidson diagonalization with overlap
     ethr =  2.19E-06,  avg # of iterations =  6.8

     negative rho (up, down):  9.515E-05 0.000E+00

     total cpu time spent up to now is       15.7 secs

     total energy              =     -24.96053291 Ry
     estimated scf accuracy    <       0.00001991 Ry

     iteration #  5     ecut=    35.00 Ry     beta= 0.70
     Davidson diagonalization with overlap
     ethr =  1.99E-07,  avg # of iterations =  2.0

     negative rho (up, down):  9.542E-05 0.000E+00

     total cpu time spent up to now is       18.5 secs

     total energy              =     -24.96053495 Ry
     estimated scf accuracy    <       0.00001799 Ry

     iteration #  6     ecut=    35.00 Ry     beta= 0.70
     Davidson diagonalization with overlap
     ethr =  1.80E-07,  avg # of iterations =  1.6

     negative rho (up, down):  9.579E-05 0.000E+00

     total cpu time spent up to now is       20.8 secs

     End of self-consistent calculation

          k = 0.0000 0.0000 0.0000 (  4083 PWs)   bands (ev):

   -14.8523  -9.5107  -5.4205  -1.9574  -1.9412   0.8104   2.0411   2.1270
     2.1431

          k =-0.1250 0.0722 0.0000 (  4103 PWs)   bands (ev):

   -14.6157  -9.3733  -5.3916  -3.4142  -2.4486   1.0843   1.9101   2.2371
     2.7062

          k =-0.2500 0.1443 0.0000 (  4114 PWs)   bands (ev):

   -13.9188  -9.0780  -5.7850  -5.2287  -3.2527   0.4631   2.3519   2.6545
     3.2844

          k =-0.3750 0.2165 0.0000 (  4132 PWs)   bands (ev):

   -12.8278  -9.3716  -7.0193  -5.4506  -3.8214  -0.0154   1.4504   3.0740
     4.1277

          k = 0.5000-0.2887 0.0000 (  4132 PWs)   bands (ev):

   -11.8949 -10.3087  -7.0254  -5.6443  -4.0195  -0.1647   1.0402   2.9906
     4.9689

          k = 0.0000 0.1443 0.0000 (  4103 PWs)   bands (ev):

   -14.6156  -9.3733  -5.3918  -3.4221  -2.4393   1.0889   1.9116   2.2376
     2.7061

          k =-0.1250 0.2165 0.0000 (  4134 PWs)   bands (ev):

   -14.1481  -9.1479  -5.3920  -4.8529  -3.5227   1.6950   2.0494   2.6818
     2.7081

          k =-0.2500 0.2887 0.0000 (  4115 PWs)   bands (ev):

   -13.2446  -9.0408  -6.4768  -5.4897  -4.4913   1.3515   2.1803   2.8613
     3.4844

          k = 0.6250-0.2165 0.0000 (  4150 PWs)   bands (ev):

   -12.0631  -9.9169  -6.9626  -5.6531  -4.9883   1.1062   1.4045   3.0529
     3.9367

          k = 0.5000-0.1443 0.0000 (  4150 PWs)   bands (ev):

   -12.0639  -9.9154  -6.9632  -5.6515  -4.9901   1.1086   1.4025   3.0510
     3.9365

          k = 0.3750-0.0722 0.0000 (  4115 PWs)   bands (ev):

   -13.2453  -9.0396  -6.4751  -5.4878  -4.4961   1.3538   2.1821   2.8544
     3.4828

          k = 0.2500 0.0000 0.0000 (  4134 PWs)   bands (ev):

   -14.1485  -9.1477  -5.3914  -4.8447  -3.5329   1.6971   2.0427   2.6796
     2.7093

          k = 0.0000 0.2887 0.0000 (  4114 PWs)   bands (ev):

   -13.9182  -9.0784  -5.7886  -5.2309  -3.2461   0.4690   2.3515   2.6524
     3.2843

          k =-0.1250 0.3609 0.0000 (  4115 PWs)   bands (ev):

   -13.2440  -9.0419  -6.4786  -5.4900  -4.4887   1.3577   2.1813   2.8558
     3.4845

          k = 0.7500-0.1443 0.0000 (  4150 PWs)   bands (ev):

   -12.1908  -9.5210  -6.4819  -6.4700  -5.3792   1.5941   2.3094   3.2615
     3.9166

          k = 0.6250-0.0722 0.0000 (  4180 PWs)   bands (ev):

   -11.2214 -10.3376  -7.0130  -6.1012  -5.8100   1.2733   2.7187   2.8162
     4.3197

          k = 0.5000 0.0000 0.0000 (  4150 PWs)   bands (ev):

   -12.1930  -9.5161  -6.4807  -6.4733  -5.3797   1.5933   2.3111   3.2587
     3.9082

          k = 0.0000 0.4330 0.0000 (  4132 PWs)   bands (ev):

   -12.8257  -9.3760  -7.0189  -5.4538  -3.8160  -0.0106   1.4521   3.0695
     4.1273

          k = 0.8750-0.0722 0.0000 (  4150 PWs)   bands (ev):

   -12.0594  -9.9235  -6.9603  -5.6563  -4.9849   1.1119   1.4071   3.0471
     3.9368

          k = 0.7500 0.0000 0.0000 (  4180 PWs)   bands (ev):

   -11.2146 -10.3468  -7.0105  -6.0977  -5.8139   1.2752   2.7177   2.8175
     4.3221

          k = 0.0000-0.5774 0.0000 (  4132 PWs)   bands (ev):

   -11.8879 -10.3193  -7.0216  -5.6497  -4.0145  -0.1606   1.0442   2.9839
     4.9705

     the Fermi energy is    -1.1221 ev

!    total energy              =     -24.96053800 Ry
     estimated scf accuracy    <       0.00000030 Ry
     smearing contrib. (-TS)   =       0.00000000 Ry
     internal energy E=F+TS    =     -24.96053800 Ry

     The total energy is F=E-TS. E is the sum of the following terms:
     one-electron contribution =    -122.37226035 Ry
     hartree contribution      =      62.93302038 Ry
     xc contribution           =     -14.24167334 Ry
     ewald contribution        =      48.72063898 Ry
     one-center paw contrib.   =      -0.00026367 Ry

     convergence has been achieved in   6 iterations

     negative rho (up, down):  9.579E-05 0.000E+00

     Forces acting on atoms (cartesian axes, Ry/au):

     atom    1 type  2   force =     0.00000000   -0.00003301   -0.19222546
     atom    2 type  1   force =     0.00000000   -0.00249773    0.01720717
     atom    3 type  1   force =     0.00000000    0.00249488   -0.01724514
     atom    4 type  2   force =     0.00000000    0.00003586    0.19226343

     Total force =     0.272987     Total SCF correction =     0.000265

     BFGS Geometry Optimization

     number of scf cycles    =   1
     number of bfgs steps    =   0

     energy   new            =     -24.9605380020 Ry

     new trust radius        =       0.1922634341 bohr

     The maximum number of steps has been reached.

     End of BFGS Geometry Optimization

ATOMIC_POSITIONS (crystal)
H            -0.0000029662       -0.0000029662       -0.0058161039
Si           -0.0002244504       -0.0002244504        0.0755206318
Si            0.3332241938        0.3332241938        0.1104782192
H             0.3330032228        0.3330032228        0.1918172529



     Writing output data file /home/jesus/Documentos/Nanociencia_DFT/silicano.save/
     NEW-OLD atomic charge density approx. for the potential

     negative rho (up, down):  8.706E-05 0.000E+00

     Writing output data file /home/jesus/Documentos/Nanociencia_DFT/silicano.save/
 
     init_run     :      1.51s CPU      1.67s WALL (       1 calls)
     electrons    :     17.19s CPU     18.31s WALL (       1 calls)
     update_pot   :      0.47s CPU      0.47s WALL (       1 calls)
     forces       :      0.64s CPU      0.73s WALL (       1 calls)

     Called by init_run:
     wfcinit      :      0.64s CPU      0.65s WALL (       1 calls)
     potinit      :      0.23s CPU      0.25s WALL (       1 calls)
     hinit0       :      0.43s CPU      0.46s WALL (       1 calls)

     Called by electrons:
     c_bands      :     12.46s CPU     12.49s WALL (       6 calls)
     sum_band     :      3.09s CPU      3.62s WALL (       6 calls)
     v_of_rho     :      0.62s CPU      0.66s WALL (       8 calls)
     newd         :      1.42s CPU      2.13s WALL (       8 calls)
     PAW_pot      :      0.01s CPU      0.01s WALL (       9 calls)
     mix_rho      :      0.07s CPU      0.07s WALL (       6 calls)

     Called by c_bands:
     init_us_2    :      0.51s CPU      0.51s WALL (     315 calls)
     cegterg      :     10.61s CPU     10.65s WALL (     126 calls)

     Called by *egterg:
     cdiaghg      :      0.11s CPU      0.11s WALL (     685 calls)
     h_psi        :      9.75s CPU      9.78s WALL (     706 calls)
     s_psi        :      0.36s CPU      0.37s WALL (     706 calls)
     g_psi        :      0.04s CPU      0.04s WALL (     559 calls)

     Called by h_psi:
     h_psi:calbec :      0.40s CPU      0.40s WALL (     706 calls)
     vloc_psi     :      8.91s CPU      8.94s WALL (     706 calls)
     add_vuspsi   :      0.39s CPU      0.39s WALL (     706 calls)

     General routines
     calbec       :      0.57s CPU      0.58s WALL (     937 calls)
     fft          :      0.26s CPU      0.28s WALL (     114 calls)
     ffts         :      0.02s CPU      0.02s WALL (      14 calls)
     fftw         :      8.73s CPU      8.76s WALL (    8458 calls)
     interpolate  :      0.04s CPU      0.04s WALL (       8 calls)
     davcio       :      0.00s CPU      0.00s WALL (      21 calls)
 
     Parallel routines
 
     PWSCF        :     20.87s CPU     22.37s WALL

 
   This run was terminated on:  17: 6:35  31Mar2021            

=------------------------------------------------------------------------------=
   JOB DONE.
=------------------------------------------------------------------------------=
