
     Program PWSCF v.6.6 starts on  1Apr2021 at 22:59: 4 

     This program is part of the open-source Quantum ESPRESSO suite
     for quantum simulation of materials; please cite
         "P. Giannozzi et al., J. Phys.:Condens. Matter 21 395502 (2009);
         "P. Giannozzi et al., J. Phys.:Condens. Matter 29 465901 (2017);
          URL http://www.quantum-espresso.org", 
     in publications or presentations arising from this work. More details at
     http://www.quantum-espresso.org/quote

     Parallel version (MPI), running on     1 processors

     MPI processes distributed on     1 nodes
     Fft bands division:     nmany     =       1
     Waiting for input...
     Reading input from standard input
Warning: card &CELL ignored
Warning: card   CELL_DYNAMICS='BFGS', ignored
Warning: card   CELL_DOFREE='ALL', ignored
Warning: card / ignored

     Current dimensions of program PWSCF are:
     Max number of different atomic species (ntypx) = 10
     Max number of k-points (npk) =  40000
     Max angular momentum in pseudopotentials (lmaxx) =  3

     File /home/jesus/Documentos/Nanociencia_DFT/silicano.update deleted, as requested

     File /home/jesus/Documentos/Nanociencia_DFT/silicano.bfgs deleted, as requested

     Subspace diagonalization in iterative solution of the eigenvalue problem:
     a serial algorithm will be used

     Message from routine setup:
     using ibrav=0 with symmetry is DISCOURAGED, use correct ibrav instead
 
     G-vector sticks info
     --------------------
     sticks:   dense  smooth     PW     G-vecs:    dense   smooth      PW
     Sum         673     439    151                72185    39233    7257
 


     bravais-lattice index     =            0
     lattice parameter (alat)  =       6.8030  a.u.
     unit-cell volume          =    1402.5649 (a.u.)^3
     number of atoms/cell      =            4
     number of atomic types    =            2
     number of electrons       =        10.00
     number of Kohn-Sham states=            9
     kinetic-energy cutoff     =      35.0000  Ry
     charge density cutoff     =     210.0000  Ry
     convergence threshold     =      1.0E-06
     mixing beta               =       0.7000
     number of iterations used =            8  plain     mixing
     Exchange-correlation= PBE
                           (   1   4   3   4   0   0   0)
     nstep                     =            1


     celldm(1)=   6.803014  celldm(2)=   0.000000  celldm(3)=   0.000000
     celldm(4)=   0.000000  celldm(5)=   0.000000  celldm(6)=   0.000000

     crystal axes: (cart. coord. in units of alat)
               a(1) = (   0.500000   0.866000   0.000000 )  
               a(2) = (  -0.500000   0.866000   0.000000 )  
               a(3) = (   0.000000   0.000000   5.144000 )  

     reciprocal axes: (cart. coord. in units 2 pi/alat)
               b(1) = (  1.000000  0.577367  0.000000 )  
               b(2) = ( -1.000000  0.577367  0.000000 )  
               b(3) = (  0.000000  0.000000  0.194401 )  


     PseudoPot. # 1 for Si read from file:
     /home/jesus/Nanociencia_DFT/pseudopotenciales/Si.pbe-n-rrkjus_psl.1.0.0.UPF
     MD5 check sum: fa25574f73a70a4139f2adfbefec430c
     Pseudo is Ultrasoft + core correction, Zval =  4.0
     Generated using "atomic" code by A. Dal Corso v.6.3
     Using radial grid of 1141 points,  6 beta functions with: 
                l(1) =   0
                l(2) =   0
                l(3) =   1
                l(4) =   1
                l(5) =   2
                l(6) =   2
     Q(r) pseudized with 0 coefficients 


     PseudoPot. # 2 for H  read from file:
     /home/jesus/Nanociencia_DFT/pseudopotenciales/H.pbe-rrkjus_psl.1.0.0.UPF
     MD5 check sum: 3f4114867bd07edc7f1424d066fc1888
     Pseudo is Ultrasoft, Zval =  1.0
     Generated using "atomic" code by A. Dal Corso v.6.3MaX
     Using radial grid of  929 points,  2 beta functions with: 
                l(1) =   0
                l(2) =   0
     Q(r) pseudized with 0 coefficients 


     atomic species   valence    mass     pseudopotential
        Si             4.00    28.08550     Si( 1.00)
        H              1.00     1.00800     H ( 1.00)

      2 Sym. Ops. (no inversion) found



   Cartesian axes

     site n.     atom                  positions (alat units)
         1           H   tau(   1) = (   0.0000000   0.0000000   0.0000000  )
         2           Si  tau(   2) = (   0.0000000   0.0000000   0.3858000  )
         3           Si  tau(   3) = (   0.0000000   0.5767560   0.5709840  )
         4           H   tau(   4) = (   0.0000000   0.5767560   0.9567840  )

     number of k points=    21  Methfessel-Paxton smearing, width (Ry)=  0.0100
                       cart. coord. in units 2pi/alat
        k(    1) = (   0.0000000   0.0000000   0.0000000), wk =   0.0312500
        k(    2) = (  -0.1250000   0.0721709   0.0000000), wk =   0.1250000
        k(    3) = (  -0.2500000   0.1443418   0.0000000), wk =   0.1250000
        k(    4) = (  -0.3750000   0.2165127   0.0000000), wk =   0.1250000
        k(    5) = (   0.5000000  -0.2886836   0.0000000), wk =   0.0625000
        k(    6) = (   0.0000000   0.1443418   0.0000000), wk =   0.0625000
        k(    7) = (  -0.1250000   0.2165127   0.0000000), wk =   0.1250000
        k(    8) = (  -0.2500000   0.2886836   0.0000000), wk =   0.1250000
        k(    9) = (   0.6250000  -0.2165127   0.0000000), wk =   0.1250000
        k(   10) = (   0.5000000  -0.1443418   0.0000000), wk =   0.1250000
        k(   11) = (   0.3750000  -0.0721709   0.0000000), wk =   0.1250000
        k(   12) = (   0.2500000   0.0000000   0.0000000), wk =   0.0625000
        k(   13) = (   0.0000000   0.2886836   0.0000000), wk =   0.0625000
        k(   14) = (  -0.1250000   0.3608545   0.0000000), wk =   0.1250000
        k(   15) = (   0.7500000  -0.1443418   0.0000000), wk =   0.1250000
        k(   16) = (   0.6250000  -0.0721709   0.0000000), wk =   0.1250000
        k(   17) = (   0.5000000   0.0000000   0.0000000), wk =   0.0625000
        k(   18) = (   0.0000000   0.4330254   0.0000000), wk =   0.0625000
        k(   19) = (   0.8750000  -0.0721709   0.0000000), wk =   0.1250000
        k(   20) = (   0.7500000   0.0000000   0.0000000), wk =   0.0625000
        k(   21) = (   0.0000000  -0.5773672   0.0000000), wk =   0.0312500

     Dense  grid:    72185 G-vectors     FFT dimensions: (  32,  32, 162)

     Smooth grid:    39233 G-vectors     FFT dimensions: (  25,  25, 135)

     Estimated max dynamical RAM per process >     273.33 MB

     Initial potential from superposition of free atoms

     starting charge    9.99886, renormalised to   10.00000

     negative rho (up, down):  8.419E-05 0.000E+00
     Starting wfcs are   10 randomized atomic wfcs

     total cpu time spent up to now is        2.7 secs

     Self-consistent Calculation

     iteration #  1     ecut=    35.00 Ry     beta= 0.70
     Davidson diagonalization with overlap
     ethr =  1.00E-02,  avg # of iterations =  4.4

     negative rho (up, down):  7.170E-05 0.000E+00

     total cpu time spent up to now is        5.9 secs

     total energy              =     -25.08466209 Ry
     estimated scf accuracy    <       0.22513941 Ry

     iteration #  2     ecut=    35.00 Ry     beta= 0.70
     Davidson diagonalization with overlap
     ethr =  2.25E-03,  avg # of iterations =  1.7

     negative rho (up, down):  9.137E-05 0.000E+00

     total cpu time spent up to now is        8.3 secs

     total energy              =     -25.10014729 Ry
     estimated scf accuracy    <       0.00443874 Ry

     iteration #  3     ecut=    35.00 Ry     beta= 0.70
     Davidson diagonalization with overlap
     ethr =  4.44E-05,  avg # of iterations =  9.7

     negative rho (up, down):  9.840E-05 0.000E+00

     total cpu time spent up to now is       12.6 secs

     total energy              =     -25.10099136 Ry
     estimated scf accuracy    <       0.00016639 Ry

     iteration #  4     ecut=    35.00 Ry     beta= 0.70
     Davidson diagonalization with overlap
     ethr =  1.66E-06,  avg # of iterations =  6.0

     negative rho (up, down):  9.956E-05 0.000E+00

     total cpu time spent up to now is       16.0 secs

     total energy              =     -25.10101563 Ry
     estimated scf accuracy    <       0.00000603 Ry

     iteration #  5     ecut=    35.00 Ry     beta= 0.70
     Davidson diagonalization with overlap
     ethr =  6.03E-08,  avg # of iterations =  2.0

     negative rho (up, down):  9.967E-05 0.000E+00

     total cpu time spent up to now is       18.5 secs

     total energy              =     -25.10101662 Ry
     estimated scf accuracy    <       0.00000250 Ry

     iteration #  6     ecut=    35.00 Ry     beta= 0.70
     Davidson diagonalization with overlap
     ethr =  2.50E-08,  avg # of iterations =  1.5

     negative rho (up, down):  9.996E-05 0.000E+00

     total cpu time spent up to now is       20.8 secs

     End of self-consistent calculation

          k = 0.0000 0.0000 0.0000 (  4877 PWs)   bands (ev):

   -14.3429  -9.3277  -5.6369  -2.6675  -2.6512   0.0940   1.4114   1.4281
     1.4935

          k =-0.1250 0.0722 0.0000 (  4951 PWs)   bands (ev):

   -14.1367  -9.2328  -5.6236  -3.9650  -3.0677   0.4456   1.3526   1.8210
     2.0434

          k =-0.2500 0.1443 0.0000 (  4937 PWs)   bands (ev):

   -13.5313  -9.0774  -5.9790  -5.5329  -3.7539  -0.0929   1.8438   2.0837
     2.7799

          k =-0.3750 0.2165 0.0000 (  4907 PWs)   bands (ev):

   -12.5955  -9.4906  -6.9704  -5.7218  -4.2513  -0.4884   1.1100   2.3022
     3.5057

          k = 0.5000-0.2887 0.0000 (  4922 PWs)   bands (ev):

   -11.8368 -10.2613  -7.0182  -5.8699  -4.4261  -0.5918   0.7153   2.2408
     4.1183

          k = 0.0000 0.1443 0.0000 (  4951 PWs)   bands (ev):

   -14.1365  -9.2328  -5.6238  -3.9732  -3.0581   0.4500   1.3546   1.8214
     2.0441

          k =-0.1250 0.2165 0.0000 (  4939 PWs)   bands (ev):

   -13.7299  -9.0986  -5.6391  -5.2415  -3.9401   1.0550   1.3221   2.1297
     2.1969

          k =-0.2500 0.2887 0.0000 (  4899 PWs)   bands (ev):

   -12.9488  -9.1701  -6.5428  -5.7402  -4.7879   0.7367   1.7437   2.1393
     2.8760

          k = 0.6250-0.2165 0.0000 (  4882 PWs)   bands (ev):

   -11.9526  -9.9855  -6.9385  -5.8804  -5.2199   0.6031   1.0030   2.2790
     3.1961

          k = 0.5000-0.1443 0.0000 (  4882 PWs)   bands (ev):

   -11.9535  -9.9839  -6.9390  -5.8787  -5.2220   0.6054   1.0011   2.2780
     3.1958

          k = 0.3750-0.0722 0.0000 (  4899 PWs)   bands (ev):

   -12.9495  -9.1685  -6.5410  -5.7380  -4.7936   0.7388   1.7460   2.1329
     2.8745

          k = 0.2500 0.0000 0.0000 (  4939 PWs)   bands (ev):

   -13.7303  -9.0982  -5.6384  -5.2331  -3.9508   1.0581   1.3139   2.1315
     2.1957

          k = 0.0000 0.2887 0.0000 (  4937 PWs)   bands (ev):

   -13.5306  -9.0782  -5.9836  -5.5344  -3.7470  -0.0867   1.8438   2.0814
     2.7791

          k =-0.1250 0.3609 0.0000 (  4899 PWs)   bands (ev):

   -12.9480  -9.1715  -6.5451  -5.7401  -4.7852   0.7430   1.7450   2.1340
     2.8758

          k = 0.7500-0.1443 0.0000 (  4894 PWs)   bands (ev):

   -12.0459  -9.7102  -6.5479  -6.4306  -5.6359   1.2294   1.7830   2.6157
     3.0846

          k = 0.6250-0.0722 0.0000 (  4868 PWs)   bands (ev):

   -11.2389 -10.4205  -6.8792  -6.2177  -6.0214   0.9962   2.1404   2.2256
     3.3343

          k = 0.5000 0.0000 0.0000 (  4894 PWs)   bands (ev):

   -12.0485  -9.7050  -6.5465  -6.4326  -5.6381   1.2296   1.7843   2.6121
     3.0758

          k = 0.0000 0.4330 0.0000 (  4907 PWs)   bands (ev):

   -12.5930  -9.4957  -6.9709  -5.7244  -4.2456  -0.4829   1.1114   2.2985
     4.2156

          k = 0.8750-0.0722 0.0000 (  4882 PWs)   bands (ev):

   -11.9484  -9.9928  -6.9373  -5.8829  -5.2161   0.6094   1.0050   2.2739
     3.1966

          k = 0.7500 0.0000 0.0000 (  4868 PWs)   bands (ev):

   -11.2318 -10.4299  -6.8778  -6.2142  -6.0244   0.9976   2.1396   2.2267
     3.3377

          k = 0.0000-0.5774 0.0000 (  4922 PWs)   bands (ev):

   -11.8294 -10.2725  -7.0156  -5.8742  -4.4208  -0.5867   0.7184   2.2352
     4.1195

     the Fermi energy is    -1.4819 ev

!    total energy              =     -25.10101714 Ry
     estimated scf accuracy    <       0.00000014 Ry
     smearing contrib. (-TS)   =       0.00000000 Ry
     internal energy E=F+TS    =     -25.10101714 Ry

     The total energy is F=E-TS. E is the sum of the following terms:
     one-electron contribution =    -117.37227165 Ry
     hartree contribution      =      60.23165606 Ry
     xc contribution           =     -13.97433841 Ry
     ewald contribution        =      46.01393686 Ry

     convergence has been achieved in   6 iterations

     negative rho (up, down):  9.996E-05 0.000E+00

     Forces acting on atoms (cartesian axes, Ry/au):

     atom    1 type  2   force =     0.00000000   -0.00001858   -0.09521742
     atom    2 type  1   force =     0.00000000   -0.00180629    0.01372232
     atom    3 type  1   force =     0.00000000    0.00179756   -0.01363164
     atom    4 type  2   force =     0.00000000    0.00002731    0.09512675

     Total force =     0.136000     Total SCF correction =     0.000526

     BFGS Geometry Optimization

     number of scf cycles    =   1
     number of bfgs steps    =   0

     energy   new            =     -25.1010171381 Ry

     new trust radius        =       0.0952174216 bohr

     The maximum number of steps has been reached.

     End of BFGS Geometry Optimization

ATOMIC_POSITIONS (crystal)
H            -0.0000015772       -0.0000015772       -0.0027209094
Si           -0.0001532988       -0.0001532988        0.0753921255
Si            0.3331525580        0.3331525580        0.1106104655
H             0.3330023179        0.3330023179        0.1887183184



     Writing output data file /home/jesus/Documentos/Nanociencia_DFT/silicano.save/
     NEW-OLD atomic charge density approx. for the potential

     negative rho (up, down):  9.549E-05 0.000E+00

     Writing output data file /home/jesus/Documentos/Nanociencia_DFT/silicano.save/
 
     init_run     :      1.67s CPU      1.82s WALL (       1 calls)
     electrons    :     16.98s CPU     18.19s WALL (       1 calls)
     update_pot   :      0.47s CPU      0.47s WALL (       1 calls)
     forces       :      0.76s CPU      0.85s WALL (       1 calls)

     Called by init_run:
     wfcinit      :      0.63s CPU      0.64s WALL (       1 calls)
     potinit      :      0.24s CPU      0.26s WALL (       1 calls)
     hinit0       :      0.55s CPU      0.58s WALL (       1 calls)

     Called by electrons:
     c_bands      :     11.95s CPU     12.06s WALL (       6 calls)
     sum_band     :      3.11s CPU      3.62s WALL (       6 calls)
     v_of_rho     :      0.68s CPU      0.70s WALL (       8 calls)
     newd         :      1.66s CPU      2.40s WALL (       8 calls)
     mix_rho      :      0.07s CPU      0.07s WALL (       6 calls)

     Called by c_bands:
     init_us_2    :      0.52s CPU      0.53s WALL (     294 calls)
     cegterg      :      9.93s CPU     10.02s WALL (     126 calls)

     Called by *egterg:
     cdiaghg      :      0.10s CPU      0.10s WALL (     657 calls)
     h_psi        :      8.99s CPU      9.06s WALL (     678 calls)
     s_psi        :      0.39s CPU      0.39s WALL (     678 calls)
     g_psi        :      0.04s CPU      0.04s WALL (     531 calls)

     Called by h_psi:
     h_psi:calbec :      0.43s CPU      0.44s WALL (     678 calls)
     vloc_psi     :      8.09s CPU      8.15s WALL (     678 calls)
     add_vuspsi   :      0.42s CPU      0.42s WALL (     678 calls)

     General routines
     calbec       :      0.61s CPU      0.61s WALL (     888 calls)
     fft          :      0.22s CPU      0.24s WALL (     114 calls)
     ffts         :      0.02s CPU      0.02s WALL (      14 calls)
     fftw         :      8.13s CPU      8.18s WALL (    8400 calls)
     interpolate  :      0.04s CPU      0.04s WALL (       8 calls)
     davcio       :      0.01s CPU      0.05s WALL (      21 calls)
 
     Parallel routines
 
     PWSCF        :     20.93s CPU     22.56s WALL

 
   This run was terminated on:  22:59:27   1Apr2021            

=------------------------------------------------------------------------------=
   JOB DONE.
=------------------------------------------------------------------------------=
