
     Program PWSCF v.6.6 starts on 31Mar2021 at 17: 5: 7 

     This program is part of the open-source Quantum ESPRESSO suite
     for quantum simulation of materials; please cite
         "P. Giannozzi et al., J. Phys.:Condens. Matter 21 395502 (2009);
         "P. Giannozzi et al., J. Phys.:Condens. Matter 29 465901 (2017);
          URL http://www.quantum-espresso.org", 
     in publications or presentations arising from this work. More details at
     http://www.quantum-espresso.org/quote

     Parallel version (MPI), running on     1 processors

     MPI processes distributed on     1 nodes
     Fft bands division:     nmany     =       1
     Waiting for input...
     Reading input from standard input
Warning: card &CELL ignored
Warning: card   CELL_DYNAMICS='BFGS', ignored
Warning: card   CELL_DOFREE='ALL', ignored
Warning: card / ignored

     Current dimensions of program PWSCF are:
     Max number of different atomic species (ntypx) = 10
     Max number of k-points (npk) =  40000
     Max angular momentum in pseudopotentials (lmaxx) =  3

     File /home/jesus/Documentos/Nanociencia_DFT/silicano.update deleted, as requested

     File /home/jesus/Documentos/Nanociencia_DFT/silicano.bfgs deleted, as requested
     file H.pbe-kjpaw_psl.1.0.0.UPF: wavefunction(s)  1S renormalized

     Subspace diagonalization in iterative solution of the eigenvalue problem:
     a serial algorithm will be used

     Message from routine setup:
     using ibrav=0 with symmetry is DISCOURAGED, use correct ibrav instead
 
     G-vector sticks info
     --------------------
     sticks:   dense  smooth     PW     G-vecs:    dense   smooth      PW
     Sum         499     337    109                46153    24941    4853
 


     bravais-lattice index     =            0
     lattice parameter (alat)  =       5.8582  a.u.
     unit-cell volume          =     895.5721 (a.u.)^3
     number of atoms/cell      =            4
     number of atomic types    =            2
     number of electrons       =        10.00
     number of Kohn-Sham states=            9
     kinetic-energy cutoff     =      35.0000  Ry
     charge density cutoff     =     210.0000  Ry
     convergence threshold     =      1.0E-06
     mixing beta               =       0.7000
     number of iterations used =            8  plain     mixing
     Exchange-correlation= SLA PW PBX PBC
                           (   1   4   3   4   0   0   0)
     nstep                     =            1


     celldm(1)=   5.858151  celldm(2)=   0.000000  celldm(3)=   0.000000
     celldm(4)=   0.000000  celldm(5)=   0.000000  celldm(6)=   0.000000

     crystal axes: (cart. coord. in units of alat)
               a(1) = (   0.500000   0.866000   0.000000 )  
               a(2) = (  -0.500000   0.866000   0.000000 )  
               a(3) = (   0.000000   0.000000   5.144000 )  

     reciprocal axes: (cart. coord. in units 2 pi/alat)
               b(1) = (  1.000000  0.577367  0.000000 )  
               b(2) = ( -1.000000  0.577367  0.000000 )  
               b(3) = (  0.000000  0.000000  0.194401 )  


     PseudoPot. # 1 for Si read from file:
     /home/jesus/Nanociencia_DFT/pseudopotenciales/Si.pbe-n-rrkjus_psl.1.0.0.UPF
     MD5 check sum: fa25574f73a70a4139f2adfbefec430c
     Pseudo is Ultrasoft + core correction, Zval =  4.0
     Generated using "atomic" code by A. Dal Corso v.6.3
     Using radial grid of 1141 points,  6 beta functions with: 
                l(1) =   0
                l(2) =   0
                l(3) =   1
                l(4) =   1
                l(5) =   2
                l(6) =   2
     Q(r) pseudized with 0 coefficients 


     PseudoPot. # 2 for H  read from file:
     /home/jesus/Nanociencia_DFT/pseudopotenciales/H.pbe-kjpaw_psl.1.0.0.UPF
     MD5 check sum: d81a744832360e4a8af0b0b5b123bc2a
     Pseudo is Projector augmented-wave, Zval =  1.0
     Generated using "atomic" code by A. Dal Corso v.6.3MaX
     Shape of augmentation charge: PSQ
     Using radial grid of  929 points,  2 beta functions with: 
                l(1) =   0
                l(2) =   0
     Q(r) pseudized with 0 coefficients 


     atomic species   valence    mass     pseudopotential
        Si             4.00    28.08550     Si( 1.00)
        H              1.00     1.00800     H ( 1.00)

      2 Sym. Ops. (no inversion) found



   Cartesian axes

     site n.     atom                  positions (alat units)
         1           H   tau(   1) = (   0.0000000   0.0000000   0.0000000  )
         2           Si  tau(   2) = (   0.0000000   0.0000000   0.3858000  )
         3           Si  tau(   3) = (   0.0000000   0.5767560   0.5709840  )
         4           H   tau(   4) = (   0.0000000   0.5767560   0.9567840  )

     number of k points=    21  Methfessel-Paxton smearing, width (Ry)=  0.0100
                       cart. coord. in units 2pi/alat
        k(    1) = (   0.0000000   0.0000000   0.0000000), wk =   0.0312500
        k(    2) = (  -0.1250000   0.0721709   0.0000000), wk =   0.1250000
        k(    3) = (  -0.2500000   0.1443418   0.0000000), wk =   0.1250000
        k(    4) = (  -0.3750000   0.2165127   0.0000000), wk =   0.1250000
        k(    5) = (   0.5000000  -0.2886836   0.0000000), wk =   0.0625000
        k(    6) = (   0.0000000   0.1443418   0.0000000), wk =   0.0625000
        k(    7) = (  -0.1250000   0.2165127   0.0000000), wk =   0.1250000
        k(    8) = (  -0.2500000   0.2886836   0.0000000), wk =   0.1250000
        k(    9) = (   0.6250000  -0.2165127   0.0000000), wk =   0.1250000
        k(   10) = (   0.5000000  -0.1443418   0.0000000), wk =   0.1250000
        k(   11) = (   0.3750000  -0.0721709   0.0000000), wk =   0.1250000
        k(   12) = (   0.2500000   0.0000000   0.0000000), wk =   0.0625000
        k(   13) = (   0.0000000   0.2886836   0.0000000), wk =   0.0625000
        k(   14) = (  -0.1250000   0.3608545   0.0000000), wk =   0.1250000
        k(   15) = (   0.7500000  -0.1443418   0.0000000), wk =   0.1250000
        k(   16) = (   0.6250000  -0.0721709   0.0000000), wk =   0.1250000
        k(   17) = (   0.5000000   0.0000000   0.0000000), wk =   0.0625000
        k(   18) = (   0.0000000   0.4330254   0.0000000), wk =   0.0625000
        k(   19) = (   0.8750000  -0.0721709   0.0000000), wk =   0.1250000
        k(   20) = (   0.7500000   0.0000000   0.0000000), wk =   0.0625000
        k(   21) = (   0.0000000  -0.5773672   0.0000000), wk =   0.0312500

     Dense  grid:    46153 G-vectors     FFT dimensions: (  27,  27, 144)

     Smooth grid:    24941 G-vectors     FFT dimensions: (  24,  24, 120)

     Estimated max dynamical RAM per process >     175.51 MB

     Initial potential from superposition of free atoms

     starting charge    9.99886, renormalised to   10.00000

     negative rho (up, down):  5.478E-05 0.000E+00
     Starting wfcs are   10 randomized atomic wfcs
     Checking if some PAW data can be deallocated... 

     total cpu time spent up to now is        2.4 secs

     Self-consistent Calculation

     iteration #  1     ecut=    35.00 Ry     beta= 0.70
     Davidson diagonalization with overlap
     ethr =  1.00E-02,  avg # of iterations =  5.5

     negative rho (up, down):  4.410E-05 0.000E+00

     total cpu time spent up to now is        5.2 secs

     total energy              =     -24.45266616 Ry
     estimated scf accuracy    <       0.39615916 Ry

     iteration #  2     ecut=    35.00 Ry     beta= 0.70
     Davidson diagonalization with overlap
     ethr =  3.96E-03,  avg # of iterations =  2.0

     negative rho (up, down):  6.951E-05 0.000E+00

     total cpu time spent up to now is        7.7 secs

     total energy              =     -24.49474268 Ry
     estimated scf accuracy    <       0.00881526 Ry

     iteration #  3     ecut=    35.00 Ry     beta= 0.70
     Davidson diagonalization with overlap
     ethr =  8.82E-05,  avg # of iterations =  7.4

     negative rho (up, down):  8.266E-05 0.000E+00

     total cpu time spent up to now is       11.1 secs

     total energy              =     -24.49673329 Ry
     estimated scf accuracy    <       0.00052703 Ry

     iteration #  4     ecut=    35.00 Ry     beta= 0.70
     Davidson diagonalization with overlap
     c_bands:  1 eigenvalues not converged
     c_bands:  1 eigenvalues not converged
     ethr =  5.27E-06,  avg # of iterations =  8.5

     negative rho (up, down):  8.885E-05 0.000E+00

     total cpu time spent up to now is       14.9 secs

     total energy              =     -24.49682933 Ry
     estimated scf accuracy    <       0.00002439 Ry

     iteration #  5     ecut=    35.00 Ry     beta= 0.70
     Davidson diagonalization with overlap
     ethr =  2.44E-07,  avg # of iterations =  2.1

     negative rho (up, down):  8.911E-05 0.000E+00

     total cpu time spent up to now is       17.2 secs

     total energy              =     -24.49683198 Ry
     estimated scf accuracy    <       0.00000229 Ry

     iteration #  6     ecut=    35.00 Ry     beta= 0.70
     Davidson diagonalization with overlap
     ethr =  2.29E-08,  avg # of iterations =  1.9

     negative rho (up, down):  8.937E-05 0.000E+00

     total cpu time spent up to now is       19.3 secs

     End of self-consistent calculation

          k = 0.0000 0.0000 0.0000 (  3189 PWs)   bands (ev):

   -15.6979  -9.8608  -4.9901  -0.3959  -0.3809   1.8227   3.1251   3.4243
     3.4388

          k =-0.1250 0.0722 0.0000 (  3173 PWs)   bands (ev):

   -15.4048  -9.6517  -4.9234  -2.2103  -1.0858   2.1184   2.8319   3.0587
     3.9617

          k =-0.2500 0.1443 0.0000 (  3144 PWs)   bands (ev):

   -14.5381  -9.1144  -5.2925  -4.5367  -2.1093   1.4666   3.2347   3.6617
     4.1938

          k =-0.3750 0.2165 0.0000 (  3122 PWs)   bands (ev):

   -13.1563  -9.0847  -7.0155  -4.8395  -2.8008   0.8116   2.0591   4.4900
     5.3020

          k = 0.5000-0.2887 0.0000 (  3088 PWs)   bands (ev):

   -11.8486 -10.3797  -6.9107  -5.1410  -3.0383   0.5412   1.6390   4.4020
     6.4732

          k = 0.0000 0.1443 0.0000 (  3173 PWs)   bands (ev):

   -15.4047  -9.6517  -4.9234  -2.2169  -1.0780   2.1222   2.8325   3.0607
     3.9601

          k =-0.1250 0.2165 0.0000 (  3153 PWs)   bands (ev):

   -14.8244  -9.2711  -4.8786  -3.9210  -2.5917   2.7846   3.2578   3.7736
     3.7994

          k =-0.2500 0.2887 0.0000 (  3135 PWs)   bands (ev):

   -13.6931  -8.8039  -6.2004  -4.9176  -3.7645   2.4605   2.9615   4.2081
     4.5964

          k = 0.6250-0.2165 0.0000 (  3113 PWs)   bands (ev):

   -12.1507  -9.7223  -6.8972  -5.1298  -4.3865   1.8188   2.2927   4.4774
     5.3169

          k = 0.5000-0.1443 0.0000 (  3113 PWs)   bands (ev):

   -12.1513  -9.7212  -6.8979  -5.1289  -4.3871   1.8191   2.2929   4.4747
     5.3171

          k = 0.3750-0.0722 0.0000 (  3135 PWs)   bands (ev):

   -13.6935  -8.8034  -6.1993  -4.9166  -3.7671   2.4622   2.9633   4.2018
     4.5951

          k = 0.2500 0.0000 0.0000 (  3153 PWs)   bands (ev):

   -14.8246  -9.2712  -4.8784  -3.9138  -2.6001   2.7852   3.2568   3.7745
     3.7920

          k = 0.0000 0.2887 0.0000 (  3144 PWs)   bands (ev):

   -14.5377  -9.1144  -5.2934  -4.5404  -2.1038   1.4718   3.2336   3.6602
     4.1940

          k =-0.1250 0.3609 0.0000 (  3135 PWs)   bands (ev):

   -13.6927  -8.8044  -6.2010  -4.9192  -3.7622   2.4658   2.9625   4.2041
     4.5956

          k = 0.7500-0.1443 0.0000 (  3124 PWs)   bands (ev):

   -12.3518  -9.0497  -6.4565  -6.2508  -4.7550   2.2448   3.2124   4.4607
     5.5882

          k = 0.6250-0.0722 0.0000 (  3126 PWs)   bands (ev):

   -11.0358 -10.0865  -7.1661  -5.7529  -5.3051   1.7518   3.7870   3.8824
     6.1287

          k = 0.5000 0.0000 0.0000 (  3124 PWs)   bands (ev):

   -12.3532  -9.0458  -6.4609  -6.2502  -4.7532   2.2424   3.2142   4.4589
     5.5806

          k = 0.0000 0.4330 0.0000 (  3122 PWs)   bands (ev):

   -13.1549  -9.0876  -7.0138  -4.8439  -2.7963   0.8151   2.0615   4.4856
     5.3020

          k = 0.8750-0.0722 0.0000 (  3113 PWs)   bands (ev):

   -12.1482  -9.7272  -6.8933  -5.1348  -4.3838   1.8238   2.2957   4.4727
     5.3159

          k = 0.7500 0.0000 0.0000 (  3126 PWs)   bands (ev):

   -11.0299 -10.0948  -7.1627  -5.7490  -5.3107   1.7544   3.7852   3.8839
     6.1304

          k = 0.0000-0.5774 0.0000 (  3088 PWs)   bands (ev):

   -11.8426 -10.3882  -6.9053  -5.1484  -3.0339   0.5435   1.6446   4.3946
     6.4753

     the Fermi energy is     0.4277 ev

!    total energy              =     -24.49683231 Ry
     estimated scf accuracy    <       0.00000079 Ry
     smearing contrib. (-TS)   =       0.00002814 Ry
     internal energy E=F+TS    =     -24.49686045 Ry

     The total energy is F=E-TS. E is the sum of the following terms:
     one-electron contribution =    -130.71446611 Ry
     hartree contribution      =      67.49769235 Ry
     xc contribution           =     -14.71539209 Ry
     ewald contribution        =      53.43553959 Ry
     one-center paw contrib.   =      -0.00023418 Ry

     convergence has been achieved in   6 iterations

     negative rho (up, down):  8.937E-05 0.000E+00

     Forces acting on atoms (cartesian axes, Ry/au):

     atom    1 type  2   force =     0.00000000   -0.00004669   -0.40947979
     atom    2 type  1   force =     0.00000000   -0.00400174    0.00277069
     atom    3 type  1   force =     0.00000000    0.00399349   -0.00311170
     atom    4 type  2   force =     0.00000000    0.00005495    0.40982080

     Total force =     0.579376     Total SCF correction =     0.002059

     BFGS Geometry Optimization

     number of scf cycles    =   1
     number of bfgs steps    =   0

     energy   new            =     -24.4968323147 Ry

     new trust radius        =       0.4098208081 bohr

     The maximum number of steps has been reached.

     End of BFGS Geometry Optimization

ATOMIC_POSITIONS (crystal)
H            -0.0000046021       -0.0000046021       -0.0135884823
Si           -0.0003944037       -0.0003944037        0.0750919445
Si            0.3333935901        0.3333935901        0.1108967391
H             0.3330054157        0.3330054157        0.1995997987



     Writing output data file /home/jesus/Documentos/Nanociencia_DFT/silicano.save/
     NEW-OLD atomic charge density approx. for the potential

     negative rho (up, down):  7.098E-05 0.000E+00

     Writing output data file /home/jesus/Documentos/Nanociencia_DFT/silicano.save/
 
     init_run     :      1.39s CPU      1.55s WALL (       1 calls)
     electrons    :     15.93s CPU     16.94s WALL (       1 calls)
     update_pot   :      0.30s CPU      0.30s WALL (       1 calls)
     forces       :      0.51s CPU      0.61s WALL (       1 calls)

     Called by init_run:
     wfcinit      :      0.55s CPU      0.57s WALL (       1 calls)
     potinit      :      0.20s CPU      0.21s WALL (       1 calls)
     hinit0       :      0.49s CPU      0.51s WALL (       1 calls)

     Called by electrons:
     c_bands      :     11.42s CPU     11.54s WALL (       6 calls)
     sum_band     :      3.09s CPU      3.51s WALL (       6 calls)
     v_of_rho     :      0.49s CPU      0.52s WALL (       8 calls)
     newd         :      1.24s CPU      1.84s WALL (       8 calls)
     PAW_pot      :      0.01s CPU      0.01s WALL (       9 calls)
     mix_rho      :      0.05s CPU      0.05s WALL (       6 calls)

     Called by c_bands:
     init_us_2    :      0.43s CPU      0.44s WALL (     315 calls)
     cegterg      :      9.93s CPU     10.04s WALL (     126 calls)

     Called by *egterg:
     cdiaghg      :      0.12s CPU      0.13s WALL (     700 calls)
     h_psi        :      9.08s CPU      9.19s WALL (     721 calls)
     s_psi        :      0.33s CPU      0.34s WALL (     721 calls)
     g_psi        :      0.03s CPU      0.03s WALL (     574 calls)

     Called by h_psi:
     h_psi:calbec :      0.37s CPU      0.38s WALL (     721 calls)
     vloc_psi     :      8.31s CPU      8.41s WALL (     721 calls)
     add_vuspsi   :      0.35s CPU      0.35s WALL (     721 calls)

     General routines
     calbec       :      0.53s CPU      0.54s WALL (     952 calls)
     fft          :      0.22s CPU      0.24s WALL (     114 calls)
     ffts         :      0.02s CPU      0.02s WALL (      14 calls)
     fftw         :      8.11s CPU      8.20s WALL (    8500 calls)
     interpolate  :      0.04s CPU      0.04s WALL (       8 calls)
     davcio       :      0.00s CPU      0.01s WALL (      21 calls)
 
     Parallel routines
 
     PWSCF        :     19.20s CPU     20.60s WALL

 
   This run was terminated on:  17: 5:27  31Mar2021            

=------------------------------------------------------------------------------=
   JOB DONE.
=------------------------------------------------------------------------------=
