
     Program PWSCF v.6.6 starts on  1Apr2021 at 22:58: 2 

     This program is part of the open-source Quantum ESPRESSO suite
     for quantum simulation of materials; please cite
         "P. Giannozzi et al., J. Phys.:Condens. Matter 21 395502 (2009);
         "P. Giannozzi et al., J. Phys.:Condens. Matter 29 465901 (2017);
          URL http://www.quantum-espresso.org", 
     in publications or presentations arising from this work. More details at
     http://www.quantum-espresso.org/quote

     Parallel version (MPI), running on     1 processors

     MPI processes distributed on     1 nodes
     Fft bands division:     nmany     =       1
     Waiting for input...
     Reading input from standard input
Warning: card &CELL ignored
Warning: card   CELL_DYNAMICS='BFGS', ignored
Warning: card   CELL_DOFREE='ALL', ignored
Warning: card / ignored

     Current dimensions of program PWSCF are:
     Max number of different atomic species (ntypx) = 10
     Max number of k-points (npk) =  40000
     Max angular momentum in pseudopotentials (lmaxx) =  3

     File /home/jesus/Documentos/Nanociencia_DFT/silicano.update deleted, as requested

     File /home/jesus/Documentos/Nanociencia_DFT/silicano.bfgs deleted, as requested

     Subspace diagonalization in iterative solution of the eigenvalue problem:
     a serial algorithm will be used

     Message from routine setup:
     using ibrav=0 with symmetry is DISCOURAGED, use correct ibrav instead
 
     G-vector sticks info
     --------------------
     sticks:   dense  smooth     PW     G-vecs:    dense   smooth      PW
     Sum         559     379    121                55473    30219    5733
 


     bravais-lattice index     =            0
     lattice parameter (alat)  =       6.2361  a.u.
     unit-cell volume          =    1080.3321 (a.u.)^3
     number of atoms/cell      =            4
     number of atomic types    =            2
     number of electrons       =        10.00
     number of Kohn-Sham states=            9
     kinetic-energy cutoff     =      35.0000  Ry
     charge density cutoff     =     210.0000  Ry
     convergence threshold     =      1.0E-06
     mixing beta               =       0.7000
     number of iterations used =            8  plain     mixing
     Exchange-correlation= PBE
                           (   1   4   3   4   0   0   0)
     nstep                     =            1


     celldm(1)=   6.236096  celldm(2)=   0.000000  celldm(3)=   0.000000
     celldm(4)=   0.000000  celldm(5)=   0.000000  celldm(6)=   0.000000

     crystal axes: (cart. coord. in units of alat)
               a(1) = (   0.500000   0.866000   0.000000 )  
               a(2) = (  -0.500000   0.866000   0.000000 )  
               a(3) = (   0.000000   0.000000   5.144000 )  

     reciprocal axes: (cart. coord. in units 2 pi/alat)
               b(1) = (  1.000000  0.577367  0.000000 )  
               b(2) = ( -1.000000  0.577367  0.000000 )  
               b(3) = (  0.000000  0.000000  0.194401 )  


     PseudoPot. # 1 for Si read from file:
     /home/jesus/Nanociencia_DFT/pseudopotenciales/Si.pbe-n-rrkjus_psl.1.0.0.UPF
     MD5 check sum: fa25574f73a70a4139f2adfbefec430c
     Pseudo is Ultrasoft + core correction, Zval =  4.0
     Generated using "atomic" code by A. Dal Corso v.6.3
     Using radial grid of 1141 points,  6 beta functions with: 
                l(1) =   0
                l(2) =   0
                l(3) =   1
                l(4) =   1
                l(5) =   2
                l(6) =   2
     Q(r) pseudized with 0 coefficients 


     PseudoPot. # 2 for H  read from file:
     /home/jesus/Nanociencia_DFT/pseudopotenciales/H.pbe-rrkjus_psl.1.0.0.UPF
     MD5 check sum: 3f4114867bd07edc7f1424d066fc1888
     Pseudo is Ultrasoft, Zval =  1.0
     Generated using "atomic" code by A. Dal Corso v.6.3MaX
     Using radial grid of  929 points,  2 beta functions with: 
                l(1) =   0
                l(2) =   0
     Q(r) pseudized with 0 coefficients 


     atomic species   valence    mass     pseudopotential
        Si             4.00    28.08550     Si( 1.00)
        H              1.00     1.00800     H ( 1.00)

      2 Sym. Ops. (no inversion) found



   Cartesian axes

     site n.     atom                  positions (alat units)
         1           H   tau(   1) = (   0.0000000   0.0000000   0.0000000  )
         2           Si  tau(   2) = (   0.0000000   0.0000000   0.3858000  )
         3           Si  tau(   3) = (   0.0000000   0.5767560   0.5709840  )
         4           H   tau(   4) = (   0.0000000   0.5767560   0.9567840  )

     number of k points=    21  Methfessel-Paxton smearing, width (Ry)=  0.0100
                       cart. coord. in units 2pi/alat
        k(    1) = (   0.0000000   0.0000000   0.0000000), wk =   0.0312500
        k(    2) = (  -0.1250000   0.0721709   0.0000000), wk =   0.1250000
        k(    3) = (  -0.2500000   0.1443418   0.0000000), wk =   0.1250000
        k(    4) = (  -0.3750000   0.2165127   0.0000000), wk =   0.1250000
        k(    5) = (   0.5000000  -0.2886836   0.0000000), wk =   0.0625000
        k(    6) = (   0.0000000   0.1443418   0.0000000), wk =   0.0625000
        k(    7) = (  -0.1250000   0.2165127   0.0000000), wk =   0.1250000
        k(    8) = (  -0.2500000   0.2886836   0.0000000), wk =   0.1250000
        k(    9) = (   0.6250000  -0.2165127   0.0000000), wk =   0.1250000
        k(   10) = (   0.5000000  -0.1443418   0.0000000), wk =   0.1250000
        k(   11) = (   0.3750000  -0.0721709   0.0000000), wk =   0.1250000
        k(   12) = (   0.2500000   0.0000000   0.0000000), wk =   0.0625000
        k(   13) = (   0.0000000   0.2886836   0.0000000), wk =   0.0625000
        k(   14) = (  -0.1250000   0.3608545   0.0000000), wk =   0.1250000
        k(   15) = (   0.7500000  -0.1443418   0.0000000), wk =   0.1250000
        k(   16) = (   0.6250000  -0.0721709   0.0000000), wk =   0.1250000
        k(   17) = (   0.5000000   0.0000000   0.0000000), wk =   0.0625000
        k(   18) = (   0.0000000   0.4330254   0.0000000), wk =   0.0625000
        k(   19) = (   0.8750000  -0.0721709   0.0000000), wk =   0.1250000
        k(   20) = (   0.7500000   0.0000000   0.0000000), wk =   0.0625000
        k(   21) = (   0.0000000  -0.5773672   0.0000000), wk =   0.0312500

     Dense  grid:    55473 G-vectors     FFT dimensions: (  30,  30, 150)

     Smooth grid:    30219 G-vectors     FFT dimensions: (  24,  24, 125)

     Estimated max dynamical RAM per process >     211.14 MB

     Initial potential from superposition of free atoms

     starting charge    9.99886, renormalised to   10.00000

     negative rho (up, down):  6.489E-05 0.000E+00
     Starting wfcs are   10 randomized atomic wfcs

     total cpu time spent up to now is        2.5 secs

     Self-consistent Calculation

     iteration #  1     ecut=    35.00 Ry     beta= 0.70
     Davidson diagonalization with overlap
     ethr =  1.00E-02,  avg # of iterations =  5.1

     negative rho (up, down):  5.313E-05 0.000E+00

     total cpu time spent up to now is        5.5 secs

     total energy              =     -24.81645404 Ry
     estimated scf accuracy    <       0.31613415 Ry

     iteration #  2     ecut=    35.00 Ry     beta= 0.70
     Davidson diagonalization with overlap
     ethr =  3.16E-03,  avg # of iterations =  2.0

     negative rho (up, down):  7.647E-05 0.000E+00

     total cpu time spent up to now is        7.5 secs

     total energy              =     -24.84494083 Ry
     estimated scf accuracy    <       0.00592730 Ry

     iteration #  3     ecut=    35.00 Ry     beta= 0.70
     Davidson diagonalization with overlap
     ethr =  5.93E-05,  avg # of iterations = 10.0

     negative rho (up, down):  8.580E-05 0.000E+00

     total cpu time spent up to now is       10.8 secs

     total energy              =     -24.84619268 Ry
     estimated scf accuracy    <       0.00028852 Ry

     iteration #  4     ecut=    35.00 Ry     beta= 0.70
     Davidson diagonalization with overlap
     ethr =  2.89E-06,  avg # of iterations =  6.5

     negative rho (up, down):  9.057E-05 0.000E+00

     total cpu time spent up to now is       13.7 secs

     total energy              =     -24.84622762 Ry
     estimated scf accuracy    <       0.00001934 Ry

     iteration #  5     ecut=    35.00 Ry     beta= 0.70
     Davidson diagonalization with overlap
     ethr =  1.93E-07,  avg # of iterations =  2.0

     negative rho (up, down):  9.079E-05 0.000E+00

     total cpu time spent up to now is       15.7 secs

     total energy              =     -24.84624759 Ry
     estimated scf accuracy    <       0.00000302 Ry

     iteration #  6     ecut=    35.00 Ry     beta= 0.70
     Davidson diagonalization with overlap
     ethr =  3.02E-08,  avg # of iterations =  1.7

     negative rho (up, down):  9.112E-05 0.000E+00

     total cpu time spent up to now is       17.5 secs

     End of self-consistent calculation

          k = 0.0000 0.0000 0.0000 (  3763 PWs)   bands (ev):

   -15.1236  -9.6174  -5.2939  -1.5127  -1.4970   1.1537   2.3604   2.5277
     2.5432

          k =-0.1250 0.0722 0.0000 (  3746 PWs)   bands (ev):

   -14.8697  -9.4572  -5.2542  -3.0703  -2.0601   1.4186   2.2060   2.4725
     3.0935

          k =-0.2500 0.1443 0.0000 (  3758 PWs)   bands (ev):

   -14.1211  -9.0857  -5.6507  -5.0359  -2.9314   0.7718   2.6238   2.9687
     3.5642

          k =-0.3750 0.2165 0.0000 (  3792 PWs)   bands (ev):

   -12.9417  -9.2938  -7.0308  -5.2789  -3.5391   0.2423   1.6374   3.5062
     4.4824

          k = 0.5000-0.2887 0.0000 (  3784 PWs)   bands (ev):

   -11.9018 -10.3331  -7.0076  -5.5020  -3.7499   0.0602   1.2218   3.4166
     5.4366

          k = 0.0000 0.1443 0.0000 (  3746 PWs)   bands (ev):

   -14.8696  -9.4572  -5.2544  -3.0777  -2.0514   1.4229   2.2072   2.4732
     3.0924

          k =-0.1250 0.2165 0.0000 (  3756 PWs)   bands (ev):

   -14.3677  -9.1828  -5.2424  -4.5960  -3.2580   2.0396   2.4495   2.9814
     3.0275

          k =-0.2500 0.2887 0.0000 (  3782 PWs)   bands (ev):

   -13.3949  -8.9679  -6.4133  -5.3305  -4.2920   1.6931   2.4190   3.2731
     3.8225

          k = 0.6250-0.2165 0.0000 (  3786 PWs)   bands (ev):

   -12.1053  -9.8671  -6.9575  -5.5071  -4.8265   1.3472   1.6575   3.4892
     4.3540

          k = 0.5000-0.1443 0.0000 (  3786 PWs)   bands (ev):

   -12.1060  -9.8657  -6.9582  -5.5058  -4.8279   1.3490   1.6562   3.4869
     4.3541

          k = 0.3750-0.0722 0.0000 (  3782 PWs)   bands (ev):

   -13.3954  -8.9670  -6.4118  -5.3289  -4.2961   1.6954   2.4206   3.2662
     3.8210

          k = 0.2500 0.0000 0.0000 (  3756 PWs)   bands (ev):

   -14.3680  -9.1827  -5.2420  -4.5881  -3.2676   2.0412   2.4444   2.9778
     3.0286

          k = 0.0000 0.2887 0.0000 (  3758 PWs)   bands (ev):

   -14.1206  -9.0859  -5.6534  -5.0386  -2.9252   0.7774   2.6232   2.9668
     3.5641

          k =-0.1250 0.3609 0.0000 (  3782 PWs)   bands (ev):

   -13.3943  -8.9688  -6.4147  -5.3312  -4.2896   1.6991   2.4199   3.2679
     3.8224

          k = 0.7500-0.1443 0.0000 (  3794 PWs)   bands (ev):

   -12.2542  -9.3935  -6.4778  -6.4261  -5.2077   1.7955   2.5912   3.6263
     4.4112

          k = 0.6250-0.0722 0.0000 (  3778 PWs)   bands (ev):

   -11.1856 -10.2733  -7.0735  -6.0112  -5.6706   1.4237   3.0436   3.1437
     4.8687

          k = 0.5000 0.0000 0.0000 (  3794 PWs)   bands (ev):

   -12.2561  -9.3890  -6.4815  -6.4252  -5.2073   1.7943   2.5929   3.6239
     4.4032

          k = 0.0000 0.4330 0.0000 (  3792 PWs)   bands (ev):

   -12.9399  -9.2976  -7.0298  -5.2825  -3.5340   0.2466   1.6393   3.5016
     4.4829

          k = 0.8750-0.0722 0.0000 (  3786 PWs)   bands (ev):

   -12.1020  -9.8731  -6.9546  -5.5109  -4.8234   1.3524   1.6604   3.4835
     4.3539

          k = 0.7500 0.0000 0.0000 (  3778 PWs)   bands (ev):

   -11.1792 -10.2821  -7.0707  -6.0076  -5.6750   1.4258   3.0424   3.1451
     4.8707

          k = 0.0000-0.5774 0.0000 (  3784 PWs)   bands (ev):

   -11.8952 -10.3429  -7.0032  -5.5080  -3.7451   0.0636   1.2264   3.4095
     5.4384

     the Fermi energy is    -0.8852 ev

!    total energy              =     -24.84624817 Ry
     estimated scf accuracy    <       0.00000044 Ry
     smearing contrib. (-TS)   =       0.00000000 Ry
     internal energy E=F+TS    =     -24.84624817 Ry

     The total energy is F=E-TS. E is the sum of the following terms:
     one-electron contribution =    -125.03577994 Ry
     hartree contribution      =      64.38191526 Ry
     xc contribution           =     -14.38940552 Ry
     ewald contribution        =      50.19702204 Ry

     convergence has been achieved in   6 iterations

     negative rho (up, down):  9.112E-05 0.000E+00

     Forces acting on atoms (cartesian axes, Ry/au):

     atom    1 type  2   force =     0.00000000   -0.00004448   -0.25354268
     atom    2 type  1   force =     0.00000000   -0.00295657    0.01631837
     atom    3 type  1   force =     0.00000000    0.00295583   -0.01622902
     atom    4 type  2   force =     0.00000000    0.00004522    0.25345333

     Total force =     0.359263     Total SCF correction =     0.001201

     BFGS Geometry Optimization

     number of scf cycles    =   1
     number of bfgs steps    =   0

     energy   new            =     -24.8462481676 Ry

     new trust radius        =       0.2535426848 bohr

     The maximum number of steps has been reached.

     End of BFGS Geometry Optimization

ATOMIC_POSITIONS (crystal)
H            -0.0000041185       -0.0000041185       -0.0079038249
Si           -0.0002737330       -0.0002737330        0.0755087014
Si            0.3332736648        0.3332736648        0.1104940839
H             0.3330041866        0.3330041866        0.1939010396



     Writing output data file /home/jesus/Documentos/Nanociencia_DFT/silicano.save/
     NEW-OLD atomic charge density approx. for the potential

     negative rho (up, down):  7.876E-05 0.000E+00

     Writing output data file /home/jesus/Documentos/Nanociencia_DFT/silicano.save/
 
     init_run     :      1.38s CPU      1.58s WALL (       1 calls)
     electrons    :     14.03s CPU     14.98s WALL (       1 calls)
     update_pot   :      0.39s CPU      0.39s WALL (       1 calls)
     forces       :      0.53s CPU      0.61s WALL (       1 calls)

     Called by init_run:
     wfcinit      :      0.52s CPU      0.54s WALL (       1 calls)
     potinit      :      0.17s CPU      0.19s WALL (       1 calls)
     hinit0       :      0.51s CPU      0.57s WALL (       1 calls)

     Called by electrons:
     c_bands      :     10.09s CPU     10.15s WALL (       6 calls)
     sum_band     :      2.66s CPU      3.07s WALL (       6 calls)
     v_of_rho     :      0.54s CPU      0.56s WALL (       8 calls)
     newd         :      1.02s CPU      1.66s WALL (       8 calls)
     mix_rho      :      0.06s CPU      0.06s WALL (       6 calls)

     Called by c_bands:
     init_us_2    :      0.40s CPU      0.40s WALL (     294 calls)
     cegterg      :      8.51s CPU      8.56s WALL (     126 calls)

     Called by *egterg:
     cdiaghg      :      0.11s CPU      0.11s WALL (     699 calls)
     h_psi        :      7.78s CPU      7.84s WALL (     720 calls)
     s_psi        :      0.30s CPU      0.30s WALL (     720 calls)
     g_psi        :      0.03s CPU      0.03s WALL (     573 calls)

     Called by h_psi:
     h_psi:calbec :      0.35s CPU      0.35s WALL (     720 calls)
     vloc_psi     :      7.07s CPU      7.12s WALL (     720 calls)
     add_vuspsi   :      0.32s CPU      0.33s WALL (     720 calls)

     General routines
     calbec       :      0.48s CPU      0.49s WALL (     930 calls)
     fft          :      0.23s CPU      0.29s WALL (     114 calls)
     ffts         :      0.01s CPU      0.01s WALL (      14 calls)
     fftw         :      7.18s CPU      7.24s WALL (    8430 calls)
     interpolate  :      0.03s CPU      0.03s WALL (       8 calls)
     davcio       :      0.00s CPU      0.06s WALL (      21 calls)
 
     Parallel routines
 
     PWSCF        :     17.39s CPU     18.84s WALL

 
   This run was terminated on:  22:58:21   1Apr2021            

=------------------------------------------------------------------------------=
   JOB DONE.
=------------------------------------------------------------------------------=
