
     Program PWSCF v.6.6 starts on  1Apr2021 at 22:57: 7 

     This program is part of the open-source Quantum ESPRESSO suite
     for quantum simulation of materials; please cite
         "P. Giannozzi et al., J. Phys.:Condens. Matter 21 395502 (2009);
         "P. Giannozzi et al., J. Phys.:Condens. Matter 29 465901 (2017);
          URL http://www.quantum-espresso.org", 
     in publications or presentations arising from this work. More details at
     http://www.quantum-espresso.org/quote

     Parallel version (MPI), running on     1 processors

     MPI processes distributed on     1 nodes
     Fft bands division:     nmany     =       1
     Waiting for input...
     Reading input from standard input
Warning: card &CELL ignored
Warning: card   CELL_DYNAMICS='BFGS', ignored
Warning: card   CELL_DOFREE='ALL', ignored
Warning: card / ignored

     Current dimensions of program PWSCF are:
     Max number of different atomic species (ntypx) = 10
     Max number of k-points (npk) =  40000
     Max angular momentum in pseudopotentials (lmaxx) =  3

     Subspace diagonalization in iterative solution of the eigenvalue problem:
     a serial algorithm will be used

     Message from routine setup:
     using ibrav=0 with symmetry is DISCOURAGED, use correct ibrav instead
 
     G-vector sticks info
     --------------------
     sticks:   dense  smooth     PW     G-vecs:    dense   smooth      PW
     Sum         463     313    109                41601    22777    4467
 


     bravais-lattice index     =            0
     lattice parameter (alat)  =       5.6692  a.u.
     unit-cell volume          =     811.6695 (a.u.)^3
     number of atoms/cell      =            4
     number of atomic types    =            2
     number of electrons       =        10.00
     number of Kohn-Sham states=            9
     kinetic-energy cutoff     =      35.0000  Ry
     charge density cutoff     =     210.0000  Ry
     convergence threshold     =      1.0E-06
     mixing beta               =       0.7000
     number of iterations used =            8  plain     mixing
     Exchange-correlation= PBE
                           (   1   4   3   4   0   0   0)
     nstep                     =            1


     celldm(1)=   5.669178  celldm(2)=   0.000000  celldm(3)=   0.000000
     celldm(4)=   0.000000  celldm(5)=   0.000000  celldm(6)=   0.000000

     crystal axes: (cart. coord. in units of alat)
               a(1) = (   0.500000   0.866000   0.000000 )  
               a(2) = (  -0.500000   0.866000   0.000000 )  
               a(3) = (   0.000000   0.000000   5.144000 )  

     reciprocal axes: (cart. coord. in units 2 pi/alat)
               b(1) = (  1.000000  0.577367  0.000000 )  
               b(2) = ( -1.000000  0.577367  0.000000 )  
               b(3) = (  0.000000  0.000000  0.194401 )  


     PseudoPot. # 1 for Si read from file:
     /home/jesus/Nanociencia_DFT/pseudopotenciales/Si.pbe-n-rrkjus_psl.1.0.0.UPF
     MD5 check sum: fa25574f73a70a4139f2adfbefec430c
     Pseudo is Ultrasoft + core correction, Zval =  4.0
     Generated using "atomic" code by A. Dal Corso v.6.3
     Using radial grid of 1141 points,  6 beta functions with: 
                l(1) =   0
                l(2) =   0
                l(3) =   1
                l(4) =   1
                l(5) =   2
                l(6) =   2
     Q(r) pseudized with 0 coefficients 


     PseudoPot. # 2 for H  read from file:
     /home/jesus/Nanociencia_DFT/pseudopotenciales/H.pbe-rrkjus_psl.1.0.0.UPF
     MD5 check sum: 3f4114867bd07edc7f1424d066fc1888
     Pseudo is Ultrasoft, Zval =  1.0
     Generated using "atomic" code by A. Dal Corso v.6.3MaX
     Using radial grid of  929 points,  2 beta functions with: 
                l(1) =   0
                l(2) =   0
     Q(r) pseudized with 0 coefficients 


     atomic species   valence    mass     pseudopotential
        Si             4.00    28.08550     Si( 1.00)
        H              1.00     1.00800     H ( 1.00)

      2 Sym. Ops. (no inversion) found



   Cartesian axes

     site n.     atom                  positions (alat units)
         1           H   tau(   1) = (   0.0000000   0.0000000   0.0000000  )
         2           Si  tau(   2) = (   0.0000000   0.0000000   0.3858000  )
         3           Si  tau(   3) = (   0.0000000   0.5767560   0.5709840  )
         4           H   tau(   4) = (   0.0000000   0.5767560   0.9567840  )

     number of k points=    21  Methfessel-Paxton smearing, width (Ry)=  0.0100
                       cart. coord. in units 2pi/alat
        k(    1) = (   0.0000000   0.0000000   0.0000000), wk =   0.0312500
        k(    2) = (  -0.1250000   0.0721709   0.0000000), wk =   0.1250000
        k(    3) = (  -0.2500000   0.1443418   0.0000000), wk =   0.1250000
        k(    4) = (  -0.3750000   0.2165127   0.0000000), wk =   0.1250000
        k(    5) = (   0.5000000  -0.2886836   0.0000000), wk =   0.0625000
        k(    6) = (   0.0000000   0.1443418   0.0000000), wk =   0.0625000
        k(    7) = (  -0.1250000   0.2165127   0.0000000), wk =   0.1250000
        k(    8) = (  -0.2500000   0.2886836   0.0000000), wk =   0.1250000
        k(    9) = (   0.6250000  -0.2165127   0.0000000), wk =   0.1250000
        k(   10) = (   0.5000000  -0.1443418   0.0000000), wk =   0.1250000
        k(   11) = (   0.3750000  -0.0721709   0.0000000), wk =   0.1250000
        k(   12) = (   0.2500000   0.0000000   0.0000000), wk =   0.0625000
        k(   13) = (   0.0000000   0.2886836   0.0000000), wk =   0.0625000
        k(   14) = (  -0.1250000   0.3608545   0.0000000), wk =   0.1250000
        k(   15) = (   0.7500000  -0.1443418   0.0000000), wk =   0.1250000
        k(   16) = (   0.6250000  -0.0721709   0.0000000), wk =   0.1250000
        k(   17) = (   0.5000000   0.0000000   0.0000000), wk =   0.0625000
        k(   18) = (   0.0000000   0.4330254   0.0000000), wk =   0.0625000
        k(   19) = (   0.8750000  -0.0721709   0.0000000), wk =   0.1250000
        k(   20) = (   0.7500000   0.0000000   0.0000000), wk =   0.0625000
        k(   21) = (   0.0000000  -0.5773672   0.0000000), wk =   0.0312500

     Dense  grid:    41601 G-vectors     FFT dimensions: (  27,  27, 135)

     Smooth grid:    22777 G-vectors     FFT dimensions: (  24,  24, 120)

     Estimated max dynamical RAM per process >     158.75 MB

     Initial potential from superposition of free atoms

     starting charge    9.99886, renormalised to   10.00000

     negative rho (up, down):  4.807E-05 0.000E+00
     Starting wfcs are   10 randomized atomic wfcs

     total cpu time spent up to now is        3.7 secs

     Self-consistent Calculation

     iteration #  1     ecut=    35.00 Ry     beta= 0.70
     Davidson diagonalization with overlap
     ethr =  1.00E-02,  avg # of iterations =  6.1

     negative rho (up, down):  3.981E-05 0.000E+00

     total cpu time spent up to now is        6.9 secs

     total energy              =     -24.19167514 Ry
     estimated scf accuracy    <       0.44246369 Ry

     iteration #  2     ecut=    35.00 Ry     beta= 0.70
     Davidson diagonalization with overlap
     ethr =  4.42E-03,  avg # of iterations =  2.2

     negative rho (up, down):  6.547E-05 0.000E+00

     total cpu time spent up to now is        9.1 secs

     total energy              =     -24.24226716 Ry
     estimated scf accuracy    <       0.01108269 Ry

     iteration #  3     ecut=    35.00 Ry     beta= 0.70
     Davidson diagonalization with overlap
     ethr =  1.11E-04,  avg # of iterations =  6.6

     negative rho (up, down):  8.032E-05 0.000E+00

     total cpu time spent up to now is       11.6 secs

     total energy              =     -24.24478798 Ry
     estimated scf accuracy    <       0.00068628 Ry

     iteration #  4     ecut=    35.00 Ry     beta= 0.70
     Davidson diagonalization with overlap
     ethr =  6.86E-06,  avg # of iterations =  8.7

     negative rho (up, down):  8.732E-05 0.000E+00

     total cpu time spent up to now is       13.9 secs

     total energy              =     -24.24493258 Ry
     estimated scf accuracy    <       0.00002806 Ry

     iteration #  5     ecut=    35.00 Ry     beta= 0.70
     Davidson diagonalization with overlap
     ethr =  2.81E-07,  avg # of iterations =  2.5

     negative rho (up, down):  8.764E-05 0.000E+00

     total cpu time spent up to now is       15.6 secs

     total energy              =     -24.24493489 Ry
     estimated scf accuracy    <       0.00001155 Ry

     iteration #  6     ecut=    35.00 Ry     beta= 0.70
     Davidson diagonalization with overlap
     ethr =  1.16E-07,  avg # of iterations =  1.6

     negative rho (up, down):  8.805E-05 0.000E+00

     total cpu time spent up to now is       17.1 secs

     End of self-consistent calculation

          k = 0.0000 0.0000 0.0000 (  2875 PWs)   bands (ev):

   -15.9979  -9.9983  -4.8128   0.3045   0.3178   2.1587   2.8981   3.5806
     3.9255

          k =-0.1250 0.0722 0.0000 (  2853 PWs)   bands (ev):

   -15.6826  -9.7625  -4.7292  -1.6758  -0.4777   2.4855   3.1594   3.4471
     4.4249

          k =-0.2500 0.1443 0.0000 (  2849 PWs)   bands (ev):

   -14.7489  -9.1363  -5.0652  -4.2150  -1.5862   1.8595   3.5877   4.0534
     4.5608

          k =-0.3750 0.2165 0.0000 (  2833 PWs)   bands (ev):

   -13.2518  -8.9487  -6.9827  -4.5643  -2.3217   1.1270   2.3041   5.0546
     5.7788

          k = 0.5000-0.2887 0.0000 (  2832 PWs)   bands (ev):

   -11.7759 -10.4011  -6.8255  -4.9196  -2.5728   0.8012   1.8837   4.9798
     7.0526

          k = 0.0000 0.1443 0.0000 (  2853 PWs)   bands (ev):

   -15.6825  -9.7624  -4.7292  -1.6814  -0.4711   2.4887   3.1595   3.4496
     4.4240

          k =-0.1250 0.2165 0.0000 (  2845 PWs)   bands (ev):

   -15.0575  -9.3252  -4.6623  -3.4826  -2.1768   3.1879   3.6556   4.2213
     4.3542

          k =-0.2500 0.2887 0.0000 (  2846 PWs)   bands (ev):

   -13.8362  -8.7163  -6.0385  -4.6523  -3.4217   2.8880   3.2830   4.7318
     5.0503

          k = 0.6250-0.2165 0.0000 (  2840 PWs)   bands (ev):

   -12.1473  -9.6209  -6.8364  -4.8906  -4.0949   2.0699   2.6739   5.0368
     5.8848

          k = 0.5000-0.1443 0.0000 (  2840 PWs)   bands (ev):

   -12.1478  -9.6201  -6.8371  -4.8904  -4.0946   2.0696   2.6745   5.0338
     5.8851

          k = 0.3750-0.0722 0.0000 (  2846 PWs)   bands (ev):

   -13.8365  -8.7161  -6.0377  -4.6521  -3.4226   2.8889   3.2850   4.7269
     5.0493

          k = 0.2500 0.0000 0.0000 (  2845 PWs)   bands (ev):

   -15.0577  -9.3253  -4.6625  -3.4765  -2.1834   3.1880   3.6557   4.2219
     4.3476

          k = 0.0000 0.2887 0.0000 (  2849 PWs)   bands (ev):

   -14.7486  -9.1362  -5.0646  -4.2195  -1.5816   1.8642   3.5864   4.0523
     4.5611

          k =-0.1250 0.3609 0.0000 (  2846 PWs)   bands (ev):

   -13.8359  -8.7166  -6.0381  -4.6551  -3.4194   2.8924   3.2841   4.7294
     5.0496

          k = 0.7500-0.1443 0.0000 (  2809 PWs)   bands (ev):

   -12.3797  -8.8234  -6.4207  -6.1208  -4.4645   2.4975   3.5631   4.9412
     6.2859

          k = 0.6250-0.0722 0.0000 (  2826 PWs)   bands (ev):

   -10.9076  -9.9610  -7.1865  -5.5772  -5.0712   1.9333   4.2171   4.3055
     6.8641

          k = 0.5000 0.0000 0.0000 (  2809 PWs)   bands (ev):

   -12.3808  -8.8203  -6.4248  -6.1207  -4.4617   2.4945   3.5648   4.9399
     6.2785

          k = 0.0000 0.4330 0.0000 (  2833 PWs)   bands (ev):

   -13.2508  -8.9508  -6.9804  -4.5693  -2.3179   1.1296   2.3071   5.0508
     5.7790

          k = 0.8750-0.0722 0.0000 (  2840 PWs)   bands (ev):

   -12.1454  -9.6246  -6.8321  -4.8965  -4.0925   2.0750   2.6762   5.0331
     5.8835

          k = 0.7500 0.0000 0.0000 (  2826 PWs)   bands (ev):

   -10.9027  -9.9680  -7.1832  -5.5730  -5.0774   1.9362   4.2150   4.3070
     6.8660

          k = 0.0000-0.5774 0.0000 (  2832 PWs)   bands (ev):

   -11.7709 -10.4079  -6.8197  -4.9278  -2.5692   0.8026   1.8899   4.9729
     7.0548

     the Fermi energy is     0.4266 ev

!    total energy              =     -24.24493721 Ry
     estimated scf accuracy    <       0.00000036 Ry
     smearing contrib. (-TS)   =       0.00001949 Ry
     internal energy E=F+TS    =     -24.24495670 Ry

     The total energy is F=E-TS. E is the sum of the following terms:
     one-electron contribution =    -133.74083586 Ry
     hartree contribution      =      69.17513537 Ry
     xc contribution           =     -14.89598045 Ry
     ewald contribution        =      55.21672424 Ry

     convergence has been achieved in   6 iterations

     negative rho (up, down):  8.805E-05 0.000E+00

     Forces acting on atoms (cartesian axes, Ry/au):

     atom    1 type  2   force =     0.00000000   -0.00006057   -0.50712846
     atom    2 type  1   force =     0.00000000   -0.00458905   -0.01102749
     atom    3 type  1   force =     0.00000000    0.00459035    0.01097808
     atom    4 type  2   force =     0.00000000    0.00005927    0.50717787

     Total force =     0.717421     Total SCF correction =     0.001008

     BFGS Geometry Optimization

     number of scf cycles    =   1
     number of bfgs steps    =   0

     energy   new            =     -24.2449372090 Ry

     new trust radius        =       0.5000000000 bohr

     The maximum number of steps has been reached.

     End of BFGS Geometry Optimization

ATOMIC_POSITIONS (crystal)
H            -0.0000060813       -0.0000060813       -0.0171437811
Si           -0.0004607493       -0.0004607493        0.0746272091
Si            0.3334608797        0.3334608797        0.1113711207
H             0.3330059509        0.3330059509        0.2031454512



     Writing output data file /home/jesus/Documentos/Nanociencia_DFT/silicano.save/
     NEW-OLD atomic charge density approx. for the potential

     negative rho (up, down):  6.545E-05 0.000E+00

     Writing output data file /home/jesus/Documentos/Nanociencia_DFT/silicano.save/
 
     init_run     :      1.20s CPU      2.28s WALL (       1 calls)
     electrons    :     12.27s CPU     13.49s WALL (       1 calls)
     update_pot   :      0.27s CPU      0.27s WALL (       1 calls)
     forces       :      0.41s CPU      0.52s WALL (       1 calls)

     Called by init_run:
     wfcinit      :      0.47s CPU      0.96s WALL (       1 calls)
     potinit      :      0.13s CPU      0.17s WALL (       1 calls)
     hinit0       :      0.46s CPU      0.81s WALL (       1 calls)

     Called by electrons:
     c_bands      :      9.15s CPU      9.40s WALL (       6 calls)
     sum_band     :      2.05s CPU      2.48s WALL (       6 calls)
     v_of_rho     :      0.39s CPU      0.42s WALL (       8 calls)
     newd         :      0.85s CPU      1.47s WALL (       8 calls)
     mix_rho      :      0.04s CPU      0.05s WALL (       6 calls)

     Called by c_bands:
     init_us_2    :      0.31s CPU      0.32s WALL (     294 calls)
     cegterg      :      7.92s CPU      8.15s WALL (     126 calls)

     Called by *egterg:
     cdiaghg      :      0.12s CPU      0.38s WALL (     708 calls)
     h_psi        :      7.32s CPU      7.53s WALL (     729 calls)
     s_psi        :      0.24s CPU      0.25s WALL (     729 calls)
     g_psi        :      0.03s CPU      0.03s WALL (     582 calls)

     Called by h_psi:
     h_psi:calbec :      0.28s CPU      0.33s WALL (     729 calls)
     vloc_psi     :      6.73s CPU      6.90s WALL (     729 calls)
     add_vuspsi   :      0.27s CPU      0.28s WALL (     729 calls)

     General routines
     calbec       :      0.39s CPU      0.43s WALL (     939 calls)
     fft          :      0.16s CPU      0.34s WALL (     114 calls)
     ffts         :      0.01s CPU      0.01s WALL (      14 calls)
     fftw         :      6.64s CPU      6.79s WALL (    8524 calls)
     interpolate  :      0.02s CPU      0.03s WALL (       8 calls)
     davcio       :      0.01s CPU      0.10s WALL (      21 calls)
 
     Parallel routines
 
     PWSCF        :     15.20s CPU     18.80s WALL

 
   This run was terminated on:  22:57:25   1Apr2021            

=------------------------------------------------------------------------------=
   JOB DONE.
=------------------------------------------------------------------------------=
