
     Program PWSCF v.6.6 starts on  1Apr2021 at 23:31:44 

     This program is part of the open-source Quantum ESPRESSO suite
     for quantum simulation of materials; please cite
         "P. Giannozzi et al., J. Phys.:Condens. Matter 21 395502 (2009);
         "P. Giannozzi et al., J. Phys.:Condens. Matter 29 465901 (2017);
          URL http://www.quantum-espresso.org", 
     in publications or presentations arising from this work. More details at
     http://www.quantum-espresso.org/quote

     Parallel version (MPI), running on     1 processors

     MPI processes distributed on     1 nodes
     Fft bands division:     nmany     =       1
     Waiting for input...
     Reading input from standard input
Warning: card &CELL ignored
Warning: card   CELL_DYNAMICS='BFGS', ignored
Warning: card   CELL_DOFREE='ALL', ignored
Warning: card / ignored

     Current dimensions of program PWSCF are:
     Max number of different atomic species (ntypx) = 10
     Max number of k-points (npk) =  40000
     Max angular momentum in pseudopotentials (lmaxx) =  3

     File /home/jesus/Documentos/Nanociencia_DFT/silicano.update deleted, as requested

     File /home/jesus/Documentos/Nanociencia_DFT/silicano.bfgs deleted, as requested

     Subspace diagonalization in iterative solution of the eigenvalue problem:
     a serial algorithm will be used

     Message from routine setup:
     using ibrav=0 with symmetry is DISCOURAGED, use correct ibrav instead
 
     G-vector sticks info
     --------------------
     sticks:   dense  smooth     PW     G-vecs:    dense   smooth      PW
     Sum         769     511    163                89513    48759    8773
 


     bravais-lattice index     =            0
     lattice parameter (alat)  =       7.3132  a.u.
     unit-cell volume          =    1742.4019 (a.u.)^3
     number of atoms/cell      =            4
     number of atomic types    =            2
     number of electrons       =        10.00
     number of Kohn-Sham states=            9
     kinetic-energy cutoff     =      35.0000  Ry
     charge density cutoff     =     210.0000  Ry
     convergence threshold     =      1.0E-06
     mixing beta               =       0.7000
     number of iterations used =            8  plain     mixing
     Exchange-correlation= PBE
                           (   1   4   3   4   0   0   0)
     nstep                     =            1


     celldm(1)=   7.313240  celldm(2)=   0.000000  celldm(3)=   0.000000
     celldm(4)=   0.000000  celldm(5)=   0.000000  celldm(6)=   0.000000

     crystal axes: (cart. coord. in units of alat)
               a(1) = (   0.500000   0.866000   0.000000 )  
               a(2) = (  -0.500000   0.866000   0.000000 )  
               a(3) = (   0.000000   0.000000   5.144000 )  

     reciprocal axes: (cart. coord. in units 2 pi/alat)
               b(1) = (  1.000000  0.577367  0.000000 )  
               b(2) = ( -1.000000  0.577367  0.000000 )  
               b(3) = (  0.000000  0.000000  0.194401 )  


     PseudoPot. # 1 for Si read from file:
     /home/jesus/Nanociencia_DFT/pseudopotenciales/Si.pbe-n-rrkjus_psl.1.0.0.UPF
     MD5 check sum: fa25574f73a70a4139f2adfbefec430c
     Pseudo is Ultrasoft + core correction, Zval =  4.0
     Generated using "atomic" code by A. Dal Corso v.6.3
     Using radial grid of 1141 points,  6 beta functions with: 
                l(1) =   0
                l(2) =   0
                l(3) =   1
                l(4) =   1
                l(5) =   2
                l(6) =   2
     Q(r) pseudized with 0 coefficients 


     PseudoPot. # 2 for H  read from file:
     /home/jesus/Nanociencia_DFT/pseudopotenciales/H.pbe-rrkjus_psl.1.0.0.UPF
     MD5 check sum: 3f4114867bd07edc7f1424d066fc1888
     Pseudo is Ultrasoft, Zval =  1.0
     Generated using "atomic" code by A. Dal Corso v.6.3MaX
     Using radial grid of  929 points,  2 beta functions with: 
                l(1) =   0
                l(2) =   0
     Q(r) pseudized with 0 coefficients 


     atomic species   valence    mass     pseudopotential
        Si             4.00    28.08550     Si( 1.00)
        H              1.00     1.00800     H ( 1.00)

      2 Sym. Ops. (no inversion) found



   Cartesian axes

     site n.     atom                  positions (alat units)
         1           H   tau(   1) = (   0.0000000   0.0000000   0.0000000  )
         2           Si  tau(   2) = (   0.0000000   0.0000000   0.3858000  )
         3           Si  tau(   3) = (   0.0000000   0.5767560   0.5709840  )
         4           H   tau(   4) = (   0.0000000   0.5767560   0.9567840  )

     number of k points=    21  Methfessel-Paxton smearing, width (Ry)=  0.0100
                       cart. coord. in units 2pi/alat
        k(    1) = (   0.0000000   0.0000000   0.0000000), wk =   0.0312500
        k(    2) = (  -0.1250000   0.0721709   0.0000000), wk =   0.1250000
        k(    3) = (  -0.2500000   0.1443418   0.0000000), wk =   0.1250000
        k(    4) = (  -0.3750000   0.2165127   0.0000000), wk =   0.1250000
        k(    5) = (   0.5000000  -0.2886836   0.0000000), wk =   0.0625000
        k(    6) = (   0.0000000   0.1443418   0.0000000), wk =   0.0625000
        k(    7) = (  -0.1250000   0.2165127   0.0000000), wk =   0.1250000
        k(    8) = (  -0.2500000   0.2886836   0.0000000), wk =   0.1250000
        k(    9) = (   0.6250000  -0.2165127   0.0000000), wk =   0.1250000
        k(   10) = (   0.5000000  -0.1443418   0.0000000), wk =   0.1250000
        k(   11) = (   0.3750000  -0.0721709   0.0000000), wk =   0.1250000
        k(   12) = (   0.2500000   0.0000000   0.0000000), wk =   0.0625000
        k(   13) = (   0.0000000   0.2886836   0.0000000), wk =   0.0625000
        k(   14) = (  -0.1250000   0.3608545   0.0000000), wk =   0.1250000
        k(   15) = (   0.7500000  -0.1443418   0.0000000), wk =   0.1250000
        k(   16) = (   0.6250000  -0.0721709   0.0000000), wk =   0.1250000
        k(   17) = (   0.5000000   0.0000000   0.0000000), wk =   0.0625000
        k(   18) = (   0.0000000   0.4330254   0.0000000), wk =   0.0625000
        k(   19) = (   0.8750000  -0.0721709   0.0000000), wk =   0.1250000
        k(   20) = (   0.7500000   0.0000000   0.0000000), wk =   0.0625000
        k(   21) = (   0.0000000  -0.5773672   0.0000000), wk =   0.0312500

     Dense  grid:    89513 G-vectors     FFT dimensions: (  36,  36, 180)

     Smooth grid:    48759 G-vectors     FFT dimensions: (  27,  27, 144)

     Estimated max dynamical RAM per process >     340.32 MB

     Initial potential from superposition of free atoms

     starting charge    9.99886, renormalised to   10.00000

     negative rho (up, down):  9.995E-05 0.000E+00
     Starting wfcs are   10 randomized atomic wfcs

     total cpu time spent up to now is        2.7 secs

     Self-consistent Calculation

     iteration #  1     ecut=    35.00 Ry     beta= 0.70
     Davidson diagonalization with overlap
     ethr =  1.00E-02,  avg # of iterations =  3.5

     negative rho (up, down):  8.121E-05 0.000E+00

     total cpu time spent up to now is        6.3 secs

     total energy              =     -25.15027590 Ry
     estimated scf accuracy    <       0.16877034 Ry

     iteration #  2     ecut=    35.00 Ry     beta= 0.70
     Davidson diagonalization with overlap
     ethr =  1.69E-03,  avg # of iterations =  1.3

     negative rho (up, down):  9.630E-05 0.000E+00

     total cpu time spent up to now is        9.1 secs

     total energy              =     -25.16039376 Ry
     estimated scf accuracy    <       0.00457953 Ry

     iteration #  3     ecut=    35.00 Ry     beta= 0.70
     Davidson diagonalization with overlap
     c_bands:  1 eigenvalues not converged
     ethr =  4.58E-05,  avg # of iterations =  8.5

     negative rho (up, down):  9.837E-05 0.000E+00

     total cpu time spent up to now is       13.5 secs

     total energy              =     -25.16116247 Ry
     estimated scf accuracy    <       0.00024463 Ry

     iteration #  4     ecut=    35.00 Ry     beta= 0.70
     Davidson diagonalization with overlap
     ethr =  2.45E-06,  avg # of iterations =  6.4

     negative rho (up, down):  1.014E-04 0.000E+00

     total cpu time spent up to now is       17.2 secs

     total energy              =     -25.16120358 Ry
     estimated scf accuracy    <       0.00002221 Ry

     iteration #  5     ecut=    35.00 Ry     beta= 0.70
     Davidson diagonalization with overlap
     ethr =  2.22E-07,  avg # of iterations =  1.6

     negative rho (up, down):  1.017E-04 0.000E+00

     total cpu time spent up to now is       20.0 secs

     End of self-consistent calculation

          k = 0.0000 0.0000 0.0000 (  6023 PWs)   bands (ev):

   -13.7406  -9.1550  -5.8668  -3.3539  -3.3385  -0.9730   0.5859   0.6025
     0.8354

          k =-0.1250 0.0722 0.0000 (  6044 PWs)   bands (ev):

   -13.5686  -9.1114  -5.8657  -4.5046  -3.6633  -0.4022   0.6335   1.1461
     1.2136

          k =-0.2500 0.1443 0.0000 (  6080 PWs)   bands (ev):

   -13.0659  -9.1167  -6.1339  -5.8243  -4.2200  -0.7674   1.1581   1.4242
     2.2001

          k =-0.3750 0.2165 0.0000 (  6106 PWs)   bands (ev):

   -12.3018  -9.6128  -6.8800  -5.9806  -4.6350  -1.0828   0.6767   1.4048
     3.0843

          k = 0.5000-0.2887 0.0000 (  6110 PWs)   bands (ev):

   -11.7168 -10.2197  -6.9572  -6.0848  -4.7824  -1.1574   0.3158   1.3836
     3.0921

          k = 0.0000 0.1443 0.0000 (  6044 PWs)   bands (ev):

   -13.5684  -9.1115  -5.8659  -4.5125  -3.6540  -0.3991   0.6372   1.1464
     1.2035

          k =-0.1250 0.2165 0.0000 (  6069 PWs)   bands (ev):

   -13.2301  -9.0858  -5.8910  -5.5856  -4.3340   0.2470   0.4924   1.3470
     1.6764

          k =-0.2500 0.2887 0.0000 (  6097 PWs)   bands (ev):

   -12.5857  -9.3252  -6.5603  -5.9813  -5.0389  -0.0062   1.1603   1.3390
     2.1063

          k = 0.6250-0.2165 0.0000 (  6104 PWs)   bands (ev):

   -11.7877 -10.0505  -6.8699  -6.0947  -5.4002  -0.0968   0.5502   1.3984
     2.3260

          k = 0.5000-0.1443 0.0000 (  6104 PWs)   bands (ev):

   -11.7887 -10.0489  -6.8702  -6.0933  -5.4022  -0.0956   0.5491   1.3984
     2.3255

          k = 0.3750-0.0722 0.0000 (  6097 PWs)   bands (ev):

   -12.5866  -9.3233  -6.5584  -5.9794  -5.0446  -0.0046   1.1620   1.3358
     2.1045

          k = 0.2500 0.0000 0.0000 (  6069 PWs)   bands (ev):

   -13.2306  -9.0851  -5.8903  -5.5779  -4.3441   0.2517   0.4832   1.3495
     1.6756

          k = 0.0000 0.2887 0.0000 (  6080 PWs)   bands (ev):

   -13.0651  -9.1181  -6.1388  -5.8254  -4.2132  -0.7611   1.1580   1.4231
     2.1995

          k =-0.1250 0.3609 0.0000 (  6097 PWs)   bands (ev):

   -12.5848  -9.3270  -6.5627  -5.9811  -5.0361  -0.0000   1.1607   1.3367
     2.1052

          k = 0.7500-0.1443 0.0000 (  6115 PWs)   bands (ev):

   -11.8479  -9.8840  -6.5807  -6.3738  -5.8381   0.7838   1.0936   1.8626
     2.2181

          k = 0.6250-0.0722 0.0000 (  6107 PWs)   bands (ev):

   -11.2061 -10.4807  -6.7176  -6.2719  -6.2114   0.6404   1.4403   1.5097
     2.1330

          k = 0.5000 0.0000 0.0000 (  6115 PWs)   bands (ev):

   -11.8508  -9.8787  -6.5791  -6.3735  -5.8425   0.7850   1.0934   1.8591
     2.2098

          k = 0.0000 0.4330 0.0000 (  6106 PWs)   bands (ev):

   -12.2989  -9.6184  -6.8813  -5.9825  -4.6294  -1.0767   0.6779   1.4026
     3.0838

          k = 0.8750-0.0722 0.0000 (  6104 PWs)   bands (ev):

   -11.7832 -10.0578  -6.8699  -6.0964  -5.3961  -0.0906   0.5516   1.3953
     2.3264

          k = 0.7500 0.0000 0.0000 (  6107 PWs)   bands (ev):

   -11.1991 -10.4896  -6.7179  -6.2679  -6.2135   0.6412   1.4390   1.5106
     2.1381

          k = 0.0000-0.5774 0.0000 (  6110 PWs)   bands (ev):

   -11.7095 -10.2308  -6.9561  -6.0879  -4.7772  -1.1515   0.3179   1.3800
     3.0925

     the Fermi energy is    -3.2309 ev

!    total energy              =     -25.16120626 Ry
     estimated scf accuracy    <       0.00000093 Ry
     smearing contrib. (-TS)   =       0.00001851 Ry
     internal energy E=F+TS    =     -25.16122477 Ry

     The total energy is F=E-TS. E is the sum of the following terms:
     one-electron contribution =    -111.25868646 Ry
     hartree contribution      =      56.95935197 Ry
     xc contribution           =     -13.66555248 Ry
     ewald contribution        =      42.80366220 Ry

     convergence has been achieved in   5 iterations

     negative rho (up, down):  1.017E-04 0.000E+00

     Forces acting on atoms (cartesian axes, Ry/au):

     atom    1 type  2   force =     0.00000000   -0.00001085   -0.00610718
     atom    2 type  1   force =     0.00000000   -0.00106653    0.00254633
     atom    3 type  1   force =     0.00000000    0.00106624   -0.00236945
     atom    4 type  2   force =     0.00000000    0.00001114    0.00593030

     Total force =     0.009319     Total SCF correction =     0.000389

     BFGS Geometry Optimization

     number of scf cycles    =   1
     number of bfgs steps    =   0

     energy   new            =     -25.1612062616 Ry

     new trust radius        =       0.0061071865 bohr

     The maximum number of steps has been reached.

     End of BFGS Geometry Optimization

ATOMIC_POSITIONS (crystal)
H            -0.0000008570       -0.0000008570       -0.0001623416
Si           -0.0000842003       -0.0000842003        0.0750676869
Si            0.3330841778        0.3330841778        0.1109370149
H             0.3330008795        0.3330008795        0.1861576397



     Writing output data file /home/jesus/Documentos/Nanociencia_DFT/silicano.save/
     NEW-OLD atomic charge density approx. for the potential

     negative rho (up, down):  1.014E-04 0.000E+00

     Writing output data file /home/jesus/Documentos/Nanociencia_DFT/silicano.save/
 
     init_run     :      1.77s CPU      1.94s WALL (       1 calls)
     electrons    :     16.28s CPU     17.31s WALL (       1 calls)
     update_pot   :      0.55s CPU      0.55s WALL (       1 calls)
     forces       :      0.85s CPU      0.95s WALL (       1 calls)

     Called by init_run:
     wfcinit      :      0.76s CPU      0.76s WALL (       1 calls)
     potinit      :      0.26s CPU      0.29s WALL (       1 calls)
     hinit0       :      0.49s CPU      0.51s WALL (       1 calls)

     Called by electrons:
     c_bands      :     11.65s CPU     11.66s WALL (       5 calls)
     sum_band     :      2.92s CPU      3.47s WALL (       5 calls)
     v_of_rho     :      0.68s CPU      0.72s WALL (       7 calls)
     newd         :      1.50s CPU      2.19s WALL (       7 calls)
     mix_rho      :      0.06s CPU      0.06s WALL (       5 calls)

     Called by c_bands:
     init_us_2    :      0.50s CPU      0.51s WALL (     252 calls)
     cegterg      :      9.70s CPU      9.71s WALL (     105 calls)

     Called by *egterg:
     cdiaghg      :      0.08s CPU      0.08s WALL (     553 calls)
     h_psi        :      8.93s CPU      8.93s WALL (     574 calls)
     s_psi        :      0.39s CPU      0.39s WALL (     574 calls)
     g_psi        :      0.04s CPU      0.04s WALL (     448 calls)

     Called by h_psi:
     h_psi:calbec :      0.43s CPU      0.43s WALL (     574 calls)
     vloc_psi     :      8.06s CPU      8.06s WALL (     574 calls)
     add_vuspsi   :      0.40s CPU      0.40s WALL (     574 calls)

     General routines
     calbec       :      0.61s CPU      0.61s WALL (     763 calls)
     fft          :      0.29s CPU      0.31s WALL (     101 calls)
     ffts         :      0.01s CPU      0.01s WALL (      12 calls)
     fftw         :      8.28s CPU      8.28s WALL (    7177 calls)
     interpolate  :      0.04s CPU      0.04s WALL (       7 calls)
     davcio       :      0.00s CPU      0.01s WALL (      21 calls)
 
     Parallel routines
 
     PWSCF        :     20.41s CPU     21.89s WALL

 
   This run was terminated on:  23:32: 6   1Apr2021            

=------------------------------------------------------------------------------=
   JOB DONE.
=------------------------------------------------------------------------------=
