
     Program PWSCF v.6.6 starts on  1Apr2021 at 23: 0:55 

     This program is part of the open-source Quantum ESPRESSO suite
     for quantum simulation of materials; please cite
         "P. Giannozzi et al., J. Phys.:Condens. Matter 21 395502 (2009);
         "P. Giannozzi et al., J. Phys.:Condens. Matter 29 465901 (2017);
          URL http://www.quantum-espresso.org", 
     in publications or presentations arising from this work. More details at
     http://www.quantum-espresso.org/quote

     Parallel version (MPI), running on     1 processors

     MPI processes distributed on     1 nodes
     Fft bands division:     nmany     =       1
     Waiting for input...
     Reading input from standard input
Warning: card &CELL ignored
Warning: card   CELL_DYNAMICS='BFGS', ignored
Warning: card   CELL_DOFREE='ALL', ignored
Warning: card / ignored

     Current dimensions of program PWSCF are:
     Max number of different atomic species (ntypx) = 10
     Max number of k-points (npk) =  40000
     Max angular momentum in pseudopotentials (lmaxx) =  3

     File /home/jesus/Documentos/Nanociencia_DFT/silicano.update deleted, as requested

     File /home/jesus/Documentos/Nanociencia_DFT/silicano.bfgs deleted, as requested

     Subspace diagonalization in iterative solution of the eigenvalue problem:
     a serial algorithm will be used

     Message from routine setup:
     using ibrav=0 with symmetry is DISCOURAGED, use correct ibrav instead
 
     G-vector sticks info
     --------------------
     sticks:   dense  smooth     PW     G-vecs:    dense   smooth      PW
     Sum         823     559    163                98865    53901    9413
 


     bravais-lattice index     =            0
     lattice parameter (alat)  =       7.5589  a.u.
     unit-cell volume          =    1923.9573 (a.u.)^3
     number of atoms/cell      =            4
     number of atomic types    =            2
     number of electrons       =        10.00
     number of Kohn-Sham states=            9
     kinetic-energy cutoff     =      35.0000  Ry
     charge density cutoff     =     210.0000  Ry
     convergence threshold     =      1.0E-06
     mixing beta               =       0.7000
     number of iterations used =            8  plain     mixing
     Exchange-correlation= PBE
                           (   1   4   3   4   0   0   0)
     nstep                     =            1


     celldm(1)=   7.558904  celldm(2)=   0.000000  celldm(3)=   0.000000
     celldm(4)=   0.000000  celldm(5)=   0.000000  celldm(6)=   0.000000

     crystal axes: (cart. coord. in units of alat)
               a(1) = (   0.500000   0.866000   0.000000 )  
               a(2) = (  -0.500000   0.866000   0.000000 )  
               a(3) = (   0.000000   0.000000   5.144000 )  

     reciprocal axes: (cart. coord. in units 2 pi/alat)
               b(1) = (  1.000000  0.577367  0.000000 )  
               b(2) = ( -1.000000  0.577367  0.000000 )  
               b(3) = (  0.000000  0.000000  0.194401 )  


     PseudoPot. # 1 for Si read from file:
     /home/jesus/Nanociencia_DFT/pseudopotenciales/Si.pbe-n-rrkjus_psl.1.0.0.UPF
     MD5 check sum: fa25574f73a70a4139f2adfbefec430c
     Pseudo is Ultrasoft + core correction, Zval =  4.0
     Generated using "atomic" code by A. Dal Corso v.6.3
     Using radial grid of 1141 points,  6 beta functions with: 
                l(1) =   0
                l(2) =   0
                l(3) =   1
                l(4) =   1
                l(5) =   2
                l(6) =   2
     Q(r) pseudized with 0 coefficients 


     PseudoPot. # 2 for H  read from file:
     /home/jesus/Nanociencia_DFT/pseudopotenciales/H.pbe-rrkjus_psl.1.0.0.UPF
     MD5 check sum: 3f4114867bd07edc7f1424d066fc1888
     Pseudo is Ultrasoft, Zval =  1.0
     Generated using "atomic" code by A. Dal Corso v.6.3MaX
     Using radial grid of  929 points,  2 beta functions with: 
                l(1) =   0
                l(2) =   0
     Q(r) pseudized with 0 coefficients 


     atomic species   valence    mass     pseudopotential
        Si             4.00    28.08550     Si( 1.00)
        H              1.00     1.00800     H ( 1.00)

      2 Sym. Ops. (no inversion) found



   Cartesian axes

     site n.     atom                  positions (alat units)
         1           H   tau(   1) = (   0.0000000   0.0000000   0.0000000  )
         2           Si  tau(   2) = (   0.0000000   0.0000000   0.3858000  )
         3           Si  tau(   3) = (   0.0000000   0.5767560   0.5709840  )
         4           H   tau(   4) = (   0.0000000   0.5767560   0.9567840  )

     number of k points=    21  Methfessel-Paxton smearing, width (Ry)=  0.0100
                       cart. coord. in units 2pi/alat
        k(    1) = (   0.0000000   0.0000000   0.0000000), wk =   0.0312500
        k(    2) = (  -0.1250000   0.0721709   0.0000000), wk =   0.1250000
        k(    3) = (  -0.2500000   0.1443418   0.0000000), wk =   0.1250000
        k(    4) = (  -0.3750000   0.2165127   0.0000000), wk =   0.1250000
        k(    5) = (   0.5000000  -0.2886836   0.0000000), wk =   0.0625000
        k(    6) = (   0.0000000   0.1443418   0.0000000), wk =   0.0625000
        k(    7) = (  -0.1250000   0.2165127   0.0000000), wk =   0.1250000
        k(    8) = (  -0.2500000   0.2886836   0.0000000), wk =   0.1250000
        k(    9) = (   0.6250000  -0.2165127   0.0000000), wk =   0.1250000
        k(   10) = (   0.5000000  -0.1443418   0.0000000), wk =   0.1250000
        k(   11) = (   0.3750000  -0.0721709   0.0000000), wk =   0.1250000
        k(   12) = (   0.2500000   0.0000000   0.0000000), wk =   0.0625000
        k(   13) = (   0.0000000   0.2886836   0.0000000), wk =   0.0625000
        k(   14) = (  -0.1250000   0.3608545   0.0000000), wk =   0.1250000
        k(   15) = (   0.7500000  -0.1443418   0.0000000), wk =   0.1250000
        k(   16) = (   0.6250000  -0.0721709   0.0000000), wk =   0.1250000
        k(   17) = (   0.5000000   0.0000000   0.0000000), wk =   0.0625000
        k(   18) = (   0.0000000   0.4330254   0.0000000), wk =   0.0625000
        k(   19) = (   0.8750000  -0.0721709   0.0000000), wk =   0.1250000
        k(   20) = (   0.7500000   0.0000000   0.0000000), wk =   0.0625000
        k(   21) = (   0.0000000  -0.5773672   0.0000000), wk =   0.0312500

     Dense  grid:    98865 G-vectors     FFT dimensions: (  36,  36, 180)

     Smooth grid:    53901 G-vectors     FFT dimensions: (  30,  30, 150)

     Estimated max dynamical RAM per process >     373.95 MB

     Initial potential from superposition of free atoms

     starting charge    9.99886, renormalised to   10.00000

     negative rho (up, down):  1.056E-04 0.000E+00
     Starting wfcs are   10 randomized atomic wfcs

     total cpu time spent up to now is        3.4 secs

     Self-consistent Calculation

     iteration #  1     ecut=    35.00 Ry     beta= 0.70
     Davidson diagonalization with overlap
     ethr =  1.00E-02,  avg # of iterations =  2.9

     negative rho (up, down):  8.551E-05 0.000E+00

     total cpu time spent up to now is        9.8 secs

     total energy              =     -25.14540495 Ry
     estimated scf accuracy    <       0.14857801 Ry

     iteration #  2     ecut=    35.00 Ry     beta= 0.70
     Davidson diagonalization with overlap
     ethr =  1.49E-03,  avg # of iterations =  1.2

     negative rho (up, down):  9.851E-05 0.000E+00

     total cpu time spent up to now is       14.6 secs

     total energy              =     -25.15426755 Ry
     estimated scf accuracy    <       0.00504566 Ry

     iteration #  3     ecut=    35.00 Ry     beta= 0.70
     Davidson diagonalization with overlap
     ethr =  5.05E-05,  avg # of iterations =  7.9

     negative rho (up, down):  1.008E-04 0.000E+00

     total cpu time spent up to now is       21.3 secs

     total energy              =     -25.15518283 Ry
     estimated scf accuracy    <       0.00039114 Ry

     iteration #  4     ecut=    35.00 Ry     beta= 0.70
     Davidson diagonalization with overlap
     ethr =  3.91E-06,  avg # of iterations =  4.1

     negative rho (up, down):  1.042E-04 0.000E+00

     total cpu time spent up to now is       25.7 secs

     total energy              =     -25.15524875 Ry
     estimated scf accuracy    <       0.00002857 Ry

     iteration #  5     ecut=    35.00 Ry     beta= 0.70
     Davidson diagonalization with overlap
     ethr =  2.86E-07,  avg # of iterations =  2.1

     negative rho (up, down):  1.040E-04 0.000E+00

     total cpu time spent up to now is       29.4 secs

     total energy              =     -25.15525201 Ry
     estimated scf accuracy    <       0.00000122 Ry

     iteration #  6     ecut=    35.00 Ry     beta= 0.70
     Davidson diagonalization with overlap
     ethr =  1.22E-08,  avg # of iterations =  2.0

     negative rho (up, down):  1.041E-04 0.000E+00

     total cpu time spent up to now is       33.4 secs

     End of self-consistent calculation

          k = 0.0000 0.0000 0.0000 (  6679 PWs)   bands (ev):

   -13.4800  -9.0946  -5.9499  -3.5977  -3.5826  -1.5338   0.2398   0.2565
     0.5199

          k =-0.1250 0.0722 0.0000 (  6695 PWs)   bands (ev):

   -13.3220  -9.0737  -5.9523  -4.7010  -3.8728  -0.8334   0.2997   0.7479
     0.8030

          k =-0.2500 0.1443 0.0000 (  6724 PWs)   bands (ev):

   -12.8619  -9.1439  -6.1747  -5.9225  -4.3773  -1.0761   0.8307   1.1175
     1.9493

          k =-0.3750 0.2165 0.0000 (  6710 PWs)   bands (ev):

   -12.1674  -9.6580  -6.8273  -6.0656  -4.7578  -1.3606   0.4662   1.0283
     2.5849

          k = 0.5000-0.2887 0.0000 (  6756 PWs)   bands (ev):

   -11.6478 -10.2045  -6.9104  -6.1540  -4.8936  -1.4308   0.1326   1.0255
     2.6390

          k = 0.0000 0.1443 0.0000 (  6695 PWs)   bands (ev):

   -13.3219  -9.0740  -5.9525  -4.7088  -3.8635  -0.8312   0.3047   0.7482
     0.7928

          k =-0.1250 0.2165 0.0000 (  6697 PWs)   bands (ev):

   -13.0119  -9.0937  -5.9790  -5.6965  -4.4672  -0.1481   0.1480   0.9352
     1.4617

          k =-0.2500 0.2887 0.0000 (  6732 PWs)   bands (ev):

   -12.4235  -9.3882  -6.5477  -6.0619  -5.1115  -0.3458   0.8598   0.9952
     1.7243

          k = 0.6250-0.2165 0.0000 (  6738 PWs)   bands (ev):

   -11.7039 -10.0714  -6.8241  -6.1633  -5.4443  -0.4413   0.3426   1.0392
     1.9474

          k = 0.5000-0.1443 0.0000 (  6738 PWs)   bands (ev):

   -11.7048 -10.0698  -6.8243  -6.1621  -5.4463  -0.4405   0.3420   1.0397
     1.9467

          k = 0.3750-0.0722 0.0000 (  6732 PWs)   bands (ev):

   -12.4245  -9.3862  -6.5458  -6.0600  -5.1171  -0.3443   0.8604   0.9955
     1.7214

          k = 0.2500 0.0000 0.0000 (  6697 PWs)   bands (ev):

   -13.0124  -9.0928  -5.9783  -5.6891  -4.4771  -0.1427   0.1386   0.9370
     2.0753

          k = 0.0000 0.2887 0.0000 (  6724 PWs)   bands (ev):

   -12.8610  -9.1455  -6.1796  -5.9234  -4.3705  -1.0697   0.8307   1.1176
     1.9434

          k =-0.1250 0.3609 0.0000 (  6732 PWs)   bands (ev):

   -12.4226  -9.3900  -6.5502  -6.0616  -5.1086  -0.3397   0.8593   0.9956
     1.7213

          k = 0.7500-0.1443 0.0000 (  6745 PWs)   bands (ev):

   -11.7523  -9.9413  -6.5766  -6.3529  -5.8764   0.5841   0.7607   1.5087
     1.8593

          k = 0.6250-0.0722 0.0000 (  6761 PWs)   bands (ev):

   -11.1740 -10.4922  -6.6542  -6.2682  -6.2534   0.4705   1.0945   1.1889
     1.6127

          k = 0.5000 0.0000 0.0000 (  6745 PWs)   bands (ev):

   -11.7553  -9.9360  -6.5749  -6.3517  -5.8819   0.5857   0.7593   1.5079
     1.8626

          k = 0.0000 0.4330 0.0000 (  6710 PWs)   bands (ev):

   -12.1644  -9.6637  -6.8289  -6.0672  -4.7523  -1.3543   0.4673   1.0267
     2.5838

          k = 0.8750-0.0722 0.0000 (  6738 PWs)   bands (ev):

   -11.6993 -10.0788  -6.8247  -6.1648  -5.4401  -0.4351   0.3438   1.0374
     1.9473

          k = 0.7500 0.0000 0.0000 (  6761 PWs)   bands (ev):

   -11.1669 -10.5009  -6.6552  -6.2698  -6.2493   0.4712   1.0928   1.1896
     1.6186

          k = 0.0000-0.5774 0.0000 (  6756 PWs)   bands (ev):

   -11.6405 -10.2155  -6.9100  -6.1567  -4.8884  -1.4245   0.1343   1.0228
     2.6390

     the Fermi energy is    -3.4751 ev

!    total energy              =     -25.15525212 Ry
     estimated scf accuracy    <       0.00000032 Ry
     smearing contrib. (-TS)   =       0.00001901 Ry
     internal energy E=F+TS    =     -25.15527113 Ry

     The total energy is F=E-TS. E is the sum of the following terms:
     one-electron contribution =    -108.54833999 Ry
     hartree contribution      =      55.51588081 Ry
     xc contribution           =     -13.53535513 Ry
     ewald contribution        =      41.41254317 Ry

     convergence has been achieved in   6 iterations

     negative rho (up, down):  1.041E-04 0.000E+00

     Forces acting on atoms (cartesian axes, Ry/au):

     atom    1 type  2   force =     0.00000000   -0.00000616    0.02384293
     atom    2 type  1   force =     0.00000000   -0.00085040   -0.00374289
     atom    3 type  1   force =     0.00000000    0.00085401    0.00393496
     atom    4 type  2   force =     0.00000000    0.00000254   -0.02403501

     Total force =     0.034309     Total SCF correction =     0.001002

     BFGS Geometry Optimization

     number of scf cycles    =   1
     number of bfgs steps    =   0

     energy   new            =     -25.1552521236 Ry

     new trust radius        =       0.0240350066 bohr

     The maximum number of steps has been reached.

     End of BFGS Geometry Optimization

ATOMIC_POSITIONS (crystal)
H            -0.0000004702       -0.0000004702        0.0006131968
Si           -0.0000649555       -0.0000649555        0.0749037398
Si            0.3330652315        0.3330652315        0.1111012000
H             0.3330001941        0.3330001941        0.1853818634



     Writing output data file /home/jesus/Documentos/Nanociencia_DFT/silicano.save/
     NEW-OLD atomic charge density approx. for the potential

     negative rho (up, down):  1.048E-04 0.000E+00

     Writing output data file /home/jesus/Documentos/Nanociencia_DFT/silicano.save/
 
     init_run     :      2.32s CPU      2.51s WALL (       1 calls)
     electrons    :     28.02s CPU     29.98s WALL (       1 calls)
     update_pot   :      0.64s CPU      0.64s WALL (       1 calls)
     forces       :      0.95s CPU      1.09s WALL (       1 calls)

     Called by init_run:
     wfcinit      :      1.03s CPU      1.04s WALL (       1 calls)
     potinit      :      0.31s CPU      0.32s WALL (       1 calls)
     hinit0       :      0.64s CPU      0.67s WALL (       1 calls)

     Called by electrons:
     c_bands      :     19.50s CPU     19.59s WALL (       6 calls)
     sum_band     :      5.68s CPU      6.62s WALL (       6 calls)
     v_of_rho     :      0.96s CPU      1.00s WALL (       8 calls)
     newd         :      2.43s CPU      3.59s WALL (       8 calls)
     mix_rho      :      0.12s CPU      0.12s WALL (       6 calls)

     Called by c_bands:
     init_us_2    :      0.74s CPU      0.75s WALL (     294 calls)
     cegterg      :     16.68s CPU     16.75s WALL (     126 calls)

     Called by *egterg:
     cdiaghg      :      0.09s CPU      0.09s WALL (     550 calls)
     h_psi        :     15.68s CPU     15.75s WALL (     571 calls)
     s_psi        :      0.52s CPU      0.53s WALL (     571 calls)
     g_psi        :      0.05s CPU      0.05s WALL (     424 calls)

     Called by h_psi:
     h_psi:calbec :      0.56s CPU      0.56s WALL (     571 calls)
     vloc_psi     :     14.52s CPU     14.58s WALL (     571 calls)
     add_vuspsi   :      0.52s CPU      0.53s WALL (     571 calls)

     General routines
     calbec       :      0.81s CPU      0.81s WALL (     781 calls)
     fft          :      0.42s CPU      0.45s WALL (     114 calls)
     ffts         :      0.03s CPU      0.03s WALL (      14 calls)
     fftw         :     14.55s CPU     14.61s WALL (    8082 calls)
     interpolate  :      0.07s CPU      0.07s WALL (       8 calls)
     davcio       :      0.01s CPU      0.05s WALL (      21 calls)
 
     Parallel routines
 
     PWSCF        :     33.03s CPU     35.71s WALL

 
   This run was terminated on:  23: 1:31   1Apr2021            

=------------------------------------------------------------------------------=
   JOB DONE.
=------------------------------------------------------------------------------=
