
     Program PWSCF v.6.6 starts on  1Apr2021 at 23:35:10 

     This program is part of the open-source Quantum ESPRESSO suite
     for quantum simulation of materials; please cite
         "P. Giannozzi et al., J. Phys.:Condens. Matter 21 395502 (2009);
         "P. Giannozzi et al., J. Phys.:Condens. Matter 29 465901 (2017);
          URL http://www.quantum-espresso.org", 
     in publications or presentations arising from this work. More details at
     http://www.quantum-espresso.org/quote

     Parallel version (MPI), running on     1 processors

     MPI processes distributed on     1 nodes
     Fft bands division:     nmany     =       1
     Waiting for input...
     Reading input from standard input
Warning: card &CELL ignored
Warning: card   CELL_DYNAMICS='BFGS', ignored
Warning: card   CELL_DOFREE='ALL', ignored
Warning: card / ignored

     Current dimensions of program PWSCF are:
     Max number of different atomic species (ntypx) = 10
     Max number of k-points (npk) =  40000
     Max angular momentum in pseudopotentials (lmaxx) =  3

     File /home/jesus/Documentos/Nanociencia_DFT/silicano.update deleted, as requested

     File /home/jesus/Documentos/Nanociencia_DFT/silicano.bfgs deleted, as requested

     Subspace diagonalization in iterative solution of the eigenvalue problem:
     a serial algorithm will be used

     Message from routine setup:
     using ibrav=0 with symmetry is DISCOURAGED, use correct ibrav instead
 
     G-vector sticks info
     --------------------
     sticks:   dense  smooth     PW     G-vecs:    dense   smooth      PW
     Sum         805     547    163                95217    51791    9159
 


     bravais-lattice index     =            0
     lattice parameter (alat)  =       7.4644  a.u.
     unit-cell volume          =    1852.7070 (a.u.)^3
     number of atoms/cell      =            4
     number of atomic types    =            2
     number of electrons       =        10.00
     number of Kohn-Sham states=            9
     kinetic-energy cutoff     =      35.0000  Ry
     charge density cutoff     =     210.0000  Ry
     convergence threshold     =      1.0E-06
     mixing beta               =       0.7000
     number of iterations used =            8  plain     mixing
     Exchange-correlation= PBE
                           (   1   4   3   4   0   0   0)
     nstep                     =            1


     celldm(1)=   7.464418  celldm(2)=   0.000000  celldm(3)=   0.000000
     celldm(4)=   0.000000  celldm(5)=   0.000000  celldm(6)=   0.000000

     crystal axes: (cart. coord. in units of alat)
               a(1) = (   0.500000   0.866000   0.000000 )  
               a(2) = (  -0.500000   0.866000   0.000000 )  
               a(3) = (   0.000000   0.000000   5.144000 )  

     reciprocal axes: (cart. coord. in units 2 pi/alat)
               b(1) = (  1.000000  0.577367  0.000000 )  
               b(2) = ( -1.000000  0.577367  0.000000 )  
               b(3) = (  0.000000  0.000000  0.194401 )  


     PseudoPot. # 1 for Si read from file:
     /home/jesus/Nanociencia_DFT/pseudopotenciales/Si.pbe-n-rrkjus_psl.1.0.0.UPF
     MD5 check sum: fa25574f73a70a4139f2adfbefec430c
     Pseudo is Ultrasoft + core correction, Zval =  4.0
     Generated using "atomic" code by A. Dal Corso v.6.3
     Using radial grid of 1141 points,  6 beta functions with: 
                l(1) =   0
                l(2) =   0
                l(3) =   1
                l(4) =   1
                l(5) =   2
                l(6) =   2
     Q(r) pseudized with 0 coefficients 


     PseudoPot. # 2 for H  read from file:
     /home/jesus/Nanociencia_DFT/pseudopotenciales/H.pbe-rrkjus_psl.1.0.0.UPF
     MD5 check sum: 3f4114867bd07edc7f1424d066fc1888
     Pseudo is Ultrasoft, Zval =  1.0
     Generated using "atomic" code by A. Dal Corso v.6.3MaX
     Using radial grid of  929 points,  2 beta functions with: 
                l(1) =   0
                l(2) =   0
     Q(r) pseudized with 0 coefficients 


     atomic species   valence    mass     pseudopotential
        Si             4.00    28.08550     Si( 1.00)
        H              1.00     1.00800     H ( 1.00)

      2 Sym. Ops. (no inversion) found



   Cartesian axes

     site n.     atom                  positions (alat units)
         1           H   tau(   1) = (   0.0000000   0.0000000   0.0000000  )
         2           Si  tau(   2) = (   0.0000000   0.0000000   0.3858000  )
         3           Si  tau(   3) = (   0.0000000   0.5767560   0.5709840  )
         4           H   tau(   4) = (   0.0000000   0.5767560   0.9567840  )

     number of k points=    21  Methfessel-Paxton smearing, width (Ry)=  0.0100
                       cart. coord. in units 2pi/alat
        k(    1) = (   0.0000000   0.0000000   0.0000000), wk =   0.0312500
        k(    2) = (  -0.1250000   0.0721709   0.0000000), wk =   0.1250000
        k(    3) = (  -0.2500000   0.1443418   0.0000000), wk =   0.1250000
        k(    4) = (  -0.3750000   0.2165127   0.0000000), wk =   0.1250000
        k(    5) = (   0.5000000  -0.2886836   0.0000000), wk =   0.0625000
        k(    6) = (   0.0000000   0.1443418   0.0000000), wk =   0.0625000
        k(    7) = (  -0.1250000   0.2165127   0.0000000), wk =   0.1250000
        k(    8) = (  -0.2500000   0.2886836   0.0000000), wk =   0.1250000
        k(    9) = (   0.6250000  -0.2165127   0.0000000), wk =   0.1250000
        k(   10) = (   0.5000000  -0.1443418   0.0000000), wk =   0.1250000
        k(   11) = (   0.3750000  -0.0721709   0.0000000), wk =   0.1250000
        k(   12) = (   0.2500000   0.0000000   0.0000000), wk =   0.0625000
        k(   13) = (   0.0000000   0.2886836   0.0000000), wk =   0.0625000
        k(   14) = (  -0.1250000   0.3608545   0.0000000), wk =   0.1250000
        k(   15) = (   0.7500000  -0.1443418   0.0000000), wk =   0.1250000
        k(   16) = (   0.6250000  -0.0721709   0.0000000), wk =   0.1250000
        k(   17) = (   0.5000000   0.0000000   0.0000000), wk =   0.0625000
        k(   18) = (   0.0000000   0.4330254   0.0000000), wk =   0.0625000
        k(   19) = (   0.8750000  -0.0721709   0.0000000), wk =   0.1250000
        k(   20) = (   0.7500000   0.0000000   0.0000000), wk =   0.0625000
        k(   21) = (   0.0000000  -0.5773672   0.0000000), wk =   0.0312500

     Dense  grid:    95217 G-vectors     FFT dimensions: (  36,  36, 180)

     Smooth grid:    51791 G-vectors     FFT dimensions: (  30,  30, 150)

     Estimated max dynamical RAM per process >     360.82 MB

     Initial potential from superposition of free atoms

     starting charge    9.99886, renormalised to   10.00000

     negative rho (up, down):  1.038E-04 0.000E+00
     Starting wfcs are   10 randomized atomic wfcs

     total cpu time spent up to now is        3.1 secs

     Self-consistent Calculation

     iteration #  1     ecut=    35.00 Ry     beta= 0.70
     Davidson diagonalization with overlap
     ethr =  1.00E-02,  avg # of iterations =  3.1

     negative rho (up, down):  8.439E-05 0.000E+00

     total cpu time spent up to now is        8.0 secs

     total energy              =     -25.14940235 Ry
     estimated scf accuracy    <       0.15578421 Ry

     iteration #  2     ecut=    35.00 Ry     beta= 0.70
     Davidson diagonalization with overlap
     ethr =  1.56E-03,  avg # of iterations =  1.4

     negative rho (up, down):  9.801E-05 0.000E+00

     total cpu time spent up to now is       11.5 secs

     total energy              =     -25.15868300 Ry
     estimated scf accuracy    <       0.00485083 Ry

     iteration #  3     ecut=    35.00 Ry     beta= 0.70
     Davidson diagonalization with overlap
     c_bands:  1 eigenvalues not converged
     ethr =  4.85E-05,  avg # of iterations =  8.8

     negative rho (up, down):  9.953E-05 0.000E+00

     total cpu time spent up to now is       17.5 secs

     total energy              =     -25.15953333 Ry
     estimated scf accuracy    <       0.00032764 Ry

     iteration #  4     ecut=    35.00 Ry     beta= 0.70
     Davidson diagonalization with overlap
     ethr =  3.28E-06,  avg # of iterations =  4.8

     negative rho (up, down):  1.028E-04 0.000E+00

     total cpu time spent up to now is       22.0 secs

     total energy              =     -25.15958754 Ry
     estimated scf accuracy    <       0.00002880 Ry

     iteration #  5     ecut=    35.00 Ry     beta= 0.70
     Davidson diagonalization with overlap
     ethr =  2.88E-07,  avg # of iterations =  1.8

     negative rho (up, down):  1.027E-04 0.000E+00

     total cpu time spent up to now is       25.5 secs

     total energy              =     -25.15959058 Ry
     estimated scf accuracy    <       0.00000906 Ry

     iteration #  6     ecut=    35.00 Ry     beta= 0.70
     Davidson diagonalization with overlap
     ethr =  9.06E-08,  avg # of iterations =  1.1

     negative rho (up, down):  1.029E-04 0.000E+00

     total cpu time spent up to now is       28.8 secs

     End of self-consistent calculation

          k = 0.0000 0.0000 0.0000 (  6403 PWs)   bands (ev):

   -13.5782  -9.1163  -5.9204  -3.5097  -3.4944  -1.3149   0.3692   0.3859
     0.6408

          k =-0.1250 0.0722 0.0000 (  6414 PWs)   bands (ev):

   -13.4150  -9.0870  -5.9213  -4.6294  -3.7974  -0.6641   0.4272   0.9026
     0.9564

          k =-0.2500 0.1443 0.0000 (  6452 PWs)   bands (ev):

   -12.9389  -9.1332  -6.1611  -5.8878  -4.3212  -0.9578   0.9555   1.2374
     2.1482

          k =-0.3750 0.2165 0.0000 (  6488 PWs)   bands (ev):

   -12.2186  -9.6417  -6.8483  -6.0358  -4.7146  -1.2539   0.5480   1.1684
     2.7735

          k = 0.5000-0.2887 0.0000 (  6500 PWs)   bands (ev):

   -11.6750 -10.2102  -6.9297  -6.1300  -4.8547  -1.3253   0.2027   1.1592
     2.8104

          k = 0.0000 0.1443 0.0000 (  6414 PWs)   bands (ev):

   -13.4148  -9.0872  -5.9216  -4.6373  -3.7880  -0.6615   0.4317   0.9031
     0.9461

          k =-0.1250 0.2165 0.0000 (  6459 PWs)   bands (ev):

   -13.0942  -9.0901  -5.9478  -5.6573  -4.4197   0.0064   0.2766   1.0952
     1.5413

          k =-0.2500 0.2887 0.0000 (  6483 PWs)   bands (ev):

   -12.4850  -9.3650  -6.5538  -6.0336  -5.0867  -0.2157   0.9759   1.1279
     1.8716

          k = 0.6250-0.2165 0.0000 (  6497 PWs)   bands (ev):

   -11.7364 -10.0642  -6.8427  -6.1395  -5.4301  -0.3080   0.4223   1.1723
     2.0903

          k = 0.5000-0.1443 0.0000 (  6497 PWs)   bands (ev):

   -11.7373 -10.0626  -6.8430  -6.1382  -5.4321  -0.3070   0.4216   1.1726
     2.0895

          k = 0.3750-0.0722 0.0000 (  6483 PWs)   bands (ev):

   -12.4859  -9.3630  -6.5520  -6.0318  -5.0924  -0.2141   0.9770   1.1269
     1.8690

          k = 0.2500 0.0000 0.0000 (  6459 PWs)   bands (ev):

   -13.0948  -9.0893  -5.9471  -5.6498  -4.4297   0.0116   0.2673   1.0973
     1.5407

          k = 0.0000 0.2887 0.0000 (  6452 PWs)   bands (ev):

   -12.9381  -9.1347  -6.1661  -5.8888  -4.3144  -0.9514   0.9554   1.2371
     2.1425

          k =-0.1250 0.3609 0.0000 (  6483 PWs)   bands (ev):

   -12.4841  -9.3669  -6.5564  -6.0334  -5.0838  -0.2095   0.9759   1.1274
     1.8692

          k = 0.7500-0.1443 0.0000 (  6521 PWs)   bands (ev):

   -11.7891  -9.9211  -6.5797  -6.3603  -5.8661   0.6600   0.8888   1.6506
     2.0079

          k = 0.6250-0.0722 0.0000 (  6490 PWs)   bands (ev):

   -11.1874 -10.4890  -6.6773  -6.2641  -6.2488   0.5362   1.2321   1.3106
     1.8052

          k = 0.5000 0.0000 0.0000 (  6521 PWs)   bands (ev):

   -11.7920  -9.9159  -6.5780  -6.3593  -5.8713   0.6615   0.8880   1.6480
     2.0001

          k = 0.0000 0.4330 0.0000 (  6488 PWs)   bands (ev):

   -12.2156  -9.6474  -6.8498  -6.0376  -4.7090  -1.2477   0.5492   1.1664
     2.7726

          k = 0.8750-0.0722 0.0000 (  6497 PWs)   bands (ev):

   -11.7318 -10.0716  -6.8431  -6.1411  -5.4259  -0.3017   0.4236   1.1699
     2.0904

          k = 0.7500 0.0000 0.0000 (  6491 PWs)   bands (ev):

   -11.1803 -10.4978  -6.6780  -6.2598  -6.2507   0.5370   1.2305   1.3114
     1.8109

          k = 0.0000-0.5774 0.0000 (  6504 PWs)   bands (ev):

   -11.6677 -10.2213  -6.9290  -6.1329  -4.8495  -1.3191   0.2044   1.1561
     2.8106

     the Fermi energy is    -3.3868 ev

!    total energy              =     -25.15959190 Ry
     estimated scf accuracy    <       0.00000049 Ry
     smearing contrib. (-TS)   =       0.00001876 Ry
     internal energy E=F+TS    =     -25.15961066 Ry

     The total energy is F=E-TS. E is the sum of the following terms:
     one-electron contribution =    -109.57371480 Ry
     hartree contribution      =      56.06149157 Ry
     xc contribution           =     -13.58414001 Ry
     ewald contribution        =      41.93675258 Ry

     convergence has been achieved in   6 iterations

     negative rho (up, down):  1.029E-04 0.000E+00

     Forces acting on atoms (cartesian axes, Ry/au):

     atom    1 type  2   force =     0.00000000   -0.00000725    0.01320808
     atom    2 type  1   force =     0.00000000   -0.00092509   -0.00137605
     atom    3 type  1   force =     0.00000000    0.00092694    0.00151140
     atom    4 type  2   force =     0.00000000    0.00000540   -0.01334343

     Total force =     0.018931     Total SCF correction =     0.000334

     BFGS Geometry Optimization

     number of scf cycles    =   1
     number of bfgs steps    =   0

     energy   new            =     -25.1595918994 Ry

     new trust radius        =       0.0133434294 bohr

     The maximum number of steps has been reached.

     End of BFGS Geometry Optimization

ATOMIC_POSITIONS (crystal)
H            -0.0000005604       -0.0000005604        0.0003439875
Si           -0.0000715553       -0.0000715553        0.0749641627
Si            0.3330716981        0.3330716981        0.1110393624
H             0.3330004176        0.3330004176        0.1856524874



     Writing output data file /home/jesus/Documentos/Nanociencia_DFT/silicano.save/
     NEW-OLD atomic charge density approx. for the potential

     negative rho (up, down):  1.033E-04 0.000E+00

     Writing output data file /home/jesus/Documentos/Nanociencia_DFT/silicano.save/
 
     init_run     :      2.10s CPU      2.29s WALL (       1 calls)
     electrons    :     24.19s CPU     25.70s WALL (       1 calls)
     update_pot   :      0.56s CPU      0.56s WALL (       1 calls)
     forces       :      0.91s CPU      1.02s WALL (       1 calls)

     Called by init_run:
     wfcinit      :      0.93s CPU      0.94s WALL (       1 calls)
     potinit      :      0.31s CPU      0.33s WALL (       1 calls)
     hinit0       :      0.56s CPU      0.59s WALL (       1 calls)

     Called by electrons:
     c_bands      :     17.19s CPU     17.23s WALL (       6 calls)
     sum_band     :      4.51s CPU      5.18s WALL (       6 calls)
     v_of_rho     :      0.84s CPU      0.88s WALL (       8 calls)
     newd         :      2.15s CPU      3.15s WALL (       8 calls)
     mix_rho      :      0.08s CPU      0.08s WALL (       6 calls)

     Called by c_bands:
     init_us_2    :      0.67s CPU      0.67s WALL (     294 calls)
     cegterg      :     14.62s CPU     14.66s WALL (     126 calls)

     Called by *egterg:
     cdiaghg      :      0.08s CPU      0.08s WALL (     566 calls)
     h_psi        :     13.73s CPU     13.77s WALL (     587 calls)
     s_psi        :      0.46s CPU      0.46s WALL (     587 calls)
     g_psi        :      0.05s CPU      0.05s WALL (     440 calls)

     Called by h_psi:
     h_psi:calbec :      0.51s CPU      0.51s WALL (     587 calls)
     vloc_psi     :     12.68s CPU     12.72s WALL (     587 calls)
     add_vuspsi   :      0.48s CPU      0.48s WALL (     587 calls)

     General routines
     calbec       :      0.74s CPU      0.74s WALL (     797 calls)
     fft          :      0.36s CPU      0.38s WALL (     114 calls)
     ffts         :      0.03s CPU      0.03s WALL (      14 calls)
     fftw         :     12.89s CPU     12.92s WALL (    8054 calls)
     interpolate  :      0.06s CPU      0.06s WALL (       8 calls)
     davcio       :      0.00s CPU      0.01s WALL (      21 calls)
 
     Parallel routines
 
     PWSCF        :     28.78s CPU     30.73s WALL

 
   This run was terminated on:  23:35:40   1Apr2021            

=------------------------------------------------------------------------------=
   JOB DONE.
=------------------------------------------------------------------------------=
