
     Program PWSCF v.6.6 starts on 31Mar2021 at 17: 9:37 

     This program is part of the open-source Quantum ESPRESSO suite
     for quantum simulation of materials; please cite
         "P. Giannozzi et al., J. Phys.:Condens. Matter 21 395502 (2009);
         "P. Giannozzi et al., J. Phys.:Condens. Matter 29 465901 (2017);
          URL http://www.quantum-espresso.org", 
     in publications or presentations arising from this work. More details at
     http://www.quantum-espresso.org/quote

     Parallel version (MPI), running on     1 processors

     MPI processes distributed on     1 nodes
     Fft bands division:     nmany     =       1
     Waiting for input...
     Reading input from standard input
Warning: card &CELL ignored
Warning: card   CELL_DYNAMICS='BFGS', ignored
Warning: card   CELL_DOFREE='ALL', ignored
Warning: card / ignored

     Current dimensions of program PWSCF are:
     Max number of different atomic species (ntypx) = 10
     Max number of k-points (npk) =  40000
     Max angular momentum in pseudopotentials (lmaxx) =  3

     File /home/jesus/Documentos/Nanociencia_DFT/silicano.update deleted, as requested

     File /home/jesus/Documentos/Nanociencia_DFT/silicano.bfgs deleted, as requested
     file H.pbe-kjpaw_psl.1.0.0.UPF: wavefunction(s)  1S renormalized

     Subspace diagonalization in iterative solution of the eigenvalue problem:
     a serial algorithm will be used

     Message from routine setup:
     using ibrav=0 with symmetry is DISCOURAGED, use correct ibrav instead
 
     G-vector sticks info
     --------------------
     sticks:   dense  smooth     PW     G-vecs:    dense   smooth      PW
     Sum         859     583    187               106353    58117   10183
 


     bravais-lattice index     =            0
     lattice parameter (alat)  =       7.7479  a.u.
     unit-cell volume          =    2071.8916 (a.u.)^3
     number of atoms/cell      =            4
     number of atomic types    =            2
     number of electrons       =        10.00
     number of Kohn-Sham states=            9
     kinetic-energy cutoff     =      35.0000  Ry
     charge density cutoff     =     210.0000  Ry
     convergence threshold     =      1.0E-06
     mixing beta               =       0.7000
     number of iterations used =            8  plain     mixing
     Exchange-correlation= SLA PW PBX PBC
                           (   1   4   3   4   0   0   0)
     nstep                     =            1


     celldm(1)=   7.747877  celldm(2)=   0.000000  celldm(3)=   0.000000
     celldm(4)=   0.000000  celldm(5)=   0.000000  celldm(6)=   0.000000

     crystal axes: (cart. coord. in units of alat)
               a(1) = (   0.500000   0.866000   0.000000 )  
               a(2) = (  -0.500000   0.866000   0.000000 )  
               a(3) = (   0.000000   0.000000   5.144000 )  

     reciprocal axes: (cart. coord. in units 2 pi/alat)
               b(1) = (  1.000000  0.577367  0.000000 )  
               b(2) = ( -1.000000  0.577367  0.000000 )  
               b(3) = (  0.000000  0.000000  0.194401 )  


     PseudoPot. # 1 for Si read from file:
     /home/jesus/Nanociencia_DFT/pseudopotenciales/Si.pbe-n-rrkjus_psl.1.0.0.UPF
     MD5 check sum: fa25574f73a70a4139f2adfbefec430c
     Pseudo is Ultrasoft + core correction, Zval =  4.0
     Generated using "atomic" code by A. Dal Corso v.6.3
     Using radial grid of 1141 points,  6 beta functions with: 
                l(1) =   0
                l(2) =   0
                l(3) =   1
                l(4) =   1
                l(5) =   2
                l(6) =   2
     Q(r) pseudized with 0 coefficients 


     PseudoPot. # 2 for H  read from file:
     /home/jesus/Nanociencia_DFT/pseudopotenciales/H.pbe-kjpaw_psl.1.0.0.UPF
     MD5 check sum: d81a744832360e4a8af0b0b5b123bc2a
     Pseudo is Projector augmented-wave, Zval =  1.0
     Generated using "atomic" code by A. Dal Corso v.6.3MaX
     Shape of augmentation charge: PSQ
     Using radial grid of  929 points,  2 beta functions with: 
                l(1) =   0
                l(2) =   0
     Q(r) pseudized with 0 coefficients 


     atomic species   valence    mass     pseudopotential
        Si             4.00    28.08550     Si( 1.00)
        H              1.00     1.00800     H ( 1.00)

      2 Sym. Ops. (no inversion) found



   Cartesian axes

     site n.     atom                  positions (alat units)
         1           H   tau(   1) = (   0.0000000   0.0000000   0.0000000  )
         2           Si  tau(   2) = (   0.0000000   0.0000000   0.3858000  )
         3           Si  tau(   3) = (   0.0000000   0.5767560   0.5709840  )
         4           H   tau(   4) = (   0.0000000   0.5767560   0.9567840  )

     number of k points=    21  Methfessel-Paxton smearing, width (Ry)=  0.0100
                       cart. coord. in units 2pi/alat
        k(    1) = (   0.0000000   0.0000000   0.0000000), wk =   0.0312500
        k(    2) = (  -0.1250000   0.0721709   0.0000000), wk =   0.1250000
        k(    3) = (  -0.2500000   0.1443418   0.0000000), wk =   0.1250000
        k(    4) = (  -0.3750000   0.2165127   0.0000000), wk =   0.1250000
        k(    5) = (   0.5000000  -0.2886836   0.0000000), wk =   0.0625000
        k(    6) = (   0.0000000   0.1443418   0.0000000), wk =   0.0625000
        k(    7) = (  -0.1250000   0.2165127   0.0000000), wk =   0.1250000
        k(    8) = (  -0.2500000   0.2886836   0.0000000), wk =   0.1250000
        k(    9) = (   0.6250000  -0.2165127   0.0000000), wk =   0.1250000
        k(   10) = (   0.5000000  -0.1443418   0.0000000), wk =   0.1250000
        k(   11) = (   0.3750000  -0.0721709   0.0000000), wk =   0.1250000
        k(   12) = (   0.2500000   0.0000000   0.0000000), wk =   0.0625000
        k(   13) = (   0.0000000   0.2886836   0.0000000), wk =   0.0625000
        k(   14) = (  -0.1250000   0.3608545   0.0000000), wk =   0.1250000
        k(   15) = (   0.7500000  -0.1443418   0.0000000), wk =   0.1250000
        k(   16) = (   0.6250000  -0.0721709   0.0000000), wk =   0.1250000
        k(   17) = (   0.5000000   0.0000000   0.0000000), wk =   0.0625000
        k(   18) = (   0.0000000   0.4330254   0.0000000), wk =   0.0625000
        k(   19) = (   0.8750000  -0.0721709   0.0000000), wk =   0.1250000
        k(   20) = (   0.7500000   0.0000000   0.0000000), wk =   0.0625000
        k(   21) = (   0.0000000  -0.5773672   0.0000000), wk =   0.0312500

     Dense  grid:   106353 G-vectors     FFT dimensions: (  36,  36, 192)

     Smooth grid:    58117 G-vectors     FFT dimensions: (  30,  30, 160)

     Estimated max dynamical RAM per process >     401.98 MB

     Initial potential from superposition of free atoms

     starting charge    9.99886, renormalised to   10.00000

     negative rho (up, down):  1.110E-04 0.000E+00
     Starting wfcs are   10 randomized atomic wfcs
     Checking if some PAW data can be deallocated... 

     total cpu time spent up to now is        3.6 secs

     Self-consistent Calculation

     iteration #  1     ecut=    35.00 Ry     beta= 0.70
     Davidson diagonalization with overlap
     ethr =  1.00E-02,  avg # of iterations =  2.8

     negative rho (up, down):  8.737E-05 0.000E+00

     total cpu time spent up to now is        9.5 secs

     total energy              =     -25.13058246 Ry
     estimated scf accuracy    <       0.13596770 Ry

     iteration #  2     ecut=    35.00 Ry     beta= 0.70
     Davidson diagonalization with overlap
     ethr =  1.36E-03,  avg # of iterations =  1.6

     negative rho (up, down):  9.933E-05 0.000E+00

     total cpu time spent up to now is       14.1 secs

     total energy              =     -25.13916794 Ry
     estimated scf accuracy    <       0.00569759 Ry

     iteration #  3     ecut=    35.00 Ry     beta= 0.70
     Davidson diagonalization with overlap
     ethr =  5.70E-05,  avg # of iterations =  6.6

     negative rho (up, down):  1.025E-04 0.000E+00

     total cpu time spent up to now is       21.0 secs

     total energy              =     -25.14015564 Ry
     estimated scf accuracy    <       0.00060784 Ry

     iteration #  4     ecut=    35.00 Ry     beta= 0.70
     Davidson diagonalization with overlap
     ethr =  6.08E-06,  avg # of iterations =  3.8

     negative rho (up, down):  1.057E-04 0.000E+00

     total cpu time spent up to now is       26.5 secs

     total energy              =     -25.14025580 Ry
     estimated scf accuracy    <       0.00002755 Ry

     iteration #  5     ecut=    35.00 Ry     beta= 0.70
     Davidson diagonalization with overlap
     ethr =  2.76E-07,  avg # of iterations =  2.4

     negative rho (up, down):  1.055E-04 0.000E+00

     total cpu time spent up to now is       31.4 secs

     total energy              =     -25.14025919 Ry
     estimated scf accuracy    <       0.00000149 Ry

     iteration #  6     ecut=    35.00 Ry     beta= 0.70
     Davidson diagonalization with overlap
     ethr =  1.49E-08,  avg # of iterations =  2.1

     negative rho (up, down):  1.054E-04 0.000E+00

     total cpu time spent up to now is       36.2 secs

     End of self-consistent calculation

          k = 0.0000 0.0000 0.0000 (  7317 PWs)   bands (ev):

   -13.2988  -9.0667  -6.0104  -3.7619  -3.7471  -1.9847  -0.0132   0.0034
     0.2731

          k =-0.1250 0.0722 0.0000 (  7279 PWs)   bands (ev):

   -13.1510  -9.0626  -6.0143  -4.8378  -4.0137  -1.1929   0.0409   0.4351
     0.5051

          k =-0.2500 0.1443 0.0000 (  7243 PWs)   bands (ev):

   -12.7208  -9.1767  -6.2020  -5.9894  -4.4817  -1.3188   0.5780   0.8553
     1.5653

          k =-0.3750 0.2165 0.0000 (  7248 PWs)   bands (ev):

   -12.0753  -9.6973  -6.7906  -6.1241  -4.8378  -1.5798   0.2900   0.7601
     2.2114

          k = 0.5000-0.2887 0.0000 (  7248 PWs)   bands (ev):

   -11.5999 -10.2028  -6.8759  -6.2019  -4.9653  -1.6486  -0.0134   0.7666
     2.2973

          k = 0.0000 0.1443 0.0000 (  7279 PWs)   bands (ev):

   -13.1508  -9.0628  -6.0145  -4.8453  -4.0045  -1.1915   0.0472   0.4355
     0.4949

          k =-0.1250 0.2165 0.0000 (  7247 PWs)   bands (ev):

   -12.8608  -9.1143  -6.0412  -5.7701  -4.5565  -0.4783  -0.1030   0.6095
     1.7202

          k =-0.2500 0.2887 0.0000 (  7234 PWs)   bands (ev):

   -12.3120  -9.4412  -6.5381  -6.1179  -5.1573  -0.6134   0.6224   0.7090
     1.4344

          k = 0.6250-0.2165 0.0000 (  7238 PWs)   bands (ev):

   -11.6466 -10.0926  -6.7919  -6.2106  -5.4702  -0.7176   0.1755   0.7854
     1.6629

          k = 0.5000-0.1443 0.0000 (  7238 PWs)   bands (ev):

   -11.6476 -10.0910  -6.7921  -6.2094  -5.4721  -0.7170   0.1752   0.7861
     1.6620

          k = 0.3750-0.0722 0.0000 (  7234 PWs)   bands (ev):

   -12.3130  -9.4392  -6.5362  -6.1162  -5.1629  -0.6119   0.6222   0.7113
     1.4291

          k = 0.2500 0.0000 0.0000 (  7247 PWs)   bands (ev):

   -12.8614  -9.1133  -6.0406  -5.7631  -4.5662  -0.4726  -0.1127   0.6105
     1.7245

          k = 0.0000 0.2887 0.0000 (  7243 PWs)   bands (ev):

   -12.7199  -9.1784  -6.2069  -5.9903  -4.4750  -1.3125   0.5778   0.8559
     1.5591

          k =-0.1250 0.3609 0.0000 (  7234 PWs)   bands (ev):

   -12.3110  -9.4432  -6.5407  -6.1176  -5.1545  -0.6073   0.6213   0.7109
     1.4290

          k = 0.7500-0.1443 0.0000 (  7235 PWs)   bands (ev):

   -11.6874  -9.9854  -6.5732  -6.3494  -5.8889   0.4276   0.4969   1.1199
     1.4346

          k = 0.6250-0.0722 0.0000 (  7250 PWs)   bands (ev):

   -11.1526 -10.5038  -6.6201  -6.3062  -6.2282   0.3282   0.7808   0.9445
     1.2659

          k = 0.5000 0.0000 0.0000 (  7235 PWs)   bands (ev):

   -11.6905  -9.9802  -6.5714  -6.3475  -5.8949   0.4293   0.4947   1.1259
     1.4301

          k = 0.0000 0.4330 0.0000 (  7248 PWs)   bands (ev):

   -12.0722  -9.7031  -6.7925  -6.1255  -4.8323  -1.5733   0.2909   0.7592
     2.2098

          k = 0.8750-0.0722 0.0000 (  7238 PWs)   bands (ev):

   -11.6420 -10.0999  -6.7928  -6.2118  -5.4659  -0.7115   0.1765   0.7844
     1.6627

          k = 0.7500 0.0000 0.0000 (  7250 PWs)   bands (ev):

   -11.1457 -10.5124  -6.6216  -6.3076  -6.2239   0.3288   0.7789   0.9452
     1.2715

          k = 0.0000-0.5774 0.0000 (  7248 PWs)   bands (ev):

   -11.5926 -10.2137  -6.8759  -6.2043  -4.9601  -1.6421  -0.0121   0.7647
     2.2970

     the Fermi energy is    -3.6399 ev

!    total energy              =     -25.14025934 Ry
     estimated scf accuracy    <       0.00000040 Ry
     smearing contrib. (-TS)   =       0.00001989 Ry
     internal energy E=F+TS    =     -25.14027923 Ry

     The total energy is F=E-TS. E is the sum of the following terms:
     one-electron contribution =    -106.56107954 Ry
     hartree contribution      =      54.46165218 Ry
     xc contribution           =     -13.44304863 Ry
     ewald contribution        =      40.40248114 Ry
     one-center paw contrib.   =      -0.00028439 Ry

     convergence has been achieved in   6 iterations

     negative rho (up, down):  1.054E-04 0.000E+00

     Forces acting on atoms (cartesian axes, Ry/au):

     atom    1 type  2   force =     0.00000000   -0.00000127    0.04253257
     atom    2 type  1   force =     0.00000000   -0.00071428   -0.00864876
     atom    3 type  1   force =     0.00000000    0.00071863    0.00857317
     atom    4 type  2   force =     0.00000000   -0.00000308   -0.04245698

     Total force =     0.061327     Total SCF correction =     0.000663

     BFGS Geometry Optimization

     number of scf cycles    =   1
     number of bfgs steps    =   0

     energy   new            =     -25.1402593361 Ry

     new trust radius        =       0.0425325706 bohr

     The maximum number of steps has been reached.

     End of BFGS Geometry Optimization

ATOMIC_POSITIONS (crystal)
H            -0.0000000944       -0.0000000944        0.0010671807
Si           -0.0000532280       -0.0000532280        0.0747829948
Si            0.3330535518        0.3330535518        0.1112151086
H             0.3329997707        0.3329997707        0.1849347159



     Writing output data file /home/jesus/Documentos/Nanociencia_DFT/silicano.save/
     NEW-OLD atomic charge density approx. for the potential

     negative rho (up, down):  1.067E-04 0.000E+00

     Writing output data file /home/jesus/Documentos/Nanociencia_DFT/silicano.save/
 
     init_run     :      2.52s CPU      2.78s WALL (       1 calls)
     electrons    :     30.78s CPU     32.63s WALL (       1 calls)
     update_pot   :      0.69s CPU      0.69s WALL (       1 calls)
     forces       :      1.19s CPU      1.34s WALL (       1 calls)

     Called by init_run:
     wfcinit      :      1.26s CPU      1.28s WALL (       1 calls)
     potinit      :      0.34s CPU      0.36s WALL (       1 calls)
     hinit0       :      0.55s CPU      0.59s WALL (       1 calls)

     Called by electrons:
     c_bands      :     21.67s CPU     21.73s WALL (       6 calls)
     sum_band     :      6.29s CPU      7.12s WALL (       6 calls)
     v_of_rho     :      0.98s CPU      1.03s WALL (       8 calls)
     newd         :      2.51s CPU      3.73s WALL (       8 calls)
     PAW_pot      :      0.01s CPU      0.01s WALL (       9 calls)
     mix_rho      :      0.11s CPU      0.11s WALL (       6 calls)

     Called by c_bands:
     init_us_2    :      0.87s CPU      0.89s WALL (     315 calls)
     cegterg      :     18.56s CPU     18.62s WALL (     126 calls)

     Called by *egterg:
     cdiaghg      :      0.09s CPU      0.09s WALL (     529 calls)
     h_psi        :     17.52s CPU     17.58s WALL (     550 calls)
     s_psi        :      0.59s CPU      0.59s WALL (     550 calls)
     g_psi        :      0.06s CPU      0.06s WALL (     403 calls)

     Called by h_psi:
     h_psi:calbec :      0.60s CPU      0.60s WALL (     550 calls)
     vloc_psi     :     16.25s CPU     16.30s WALL (     550 calls)
     add_vuspsi   :      0.58s CPU      0.59s WALL (     550 calls)

     General routines
     calbec       :      0.92s CPU      0.92s WALL (     781 calls)
     fft          :      0.42s CPU      0.44s WALL (     114 calls)
     ffts         :      0.03s CPU      0.03s WALL (      14 calls)
     fftw         :     16.00s CPU     16.06s WALL (    7992 calls)
     interpolate  :      0.07s CPU      0.07s WALL (       8 calls)
     davcio       :      0.00s CPU      0.01s WALL (      21 calls)
 
     Parallel routines
 
     PWSCF        :     36.42s CPU     38.89s WALL

 
   This run was terminated on:  17:10:16  31Mar2021            

=------------------------------------------------------------------------------=
   JOB DONE.
=------------------------------------------------------------------------------=
