
     Program PWSCF v.6.6 starts on  1Apr2021 at 23: 1:32 

     This program is part of the open-source Quantum ESPRESSO suite
     for quantum simulation of materials; please cite
         "P. Giannozzi et al., J. Phys.:Condens. Matter 21 395502 (2009);
         "P. Giannozzi et al., J. Phys.:Condens. Matter 29 465901 (2017);
          URL http://www.quantum-espresso.org", 
     in publications or presentations arising from this work. More details at
     http://www.quantum-espresso.org/quote

     Parallel version (MPI), running on     1 processors

     MPI processes distributed on     1 nodes
     Fft bands division:     nmany     =       1
     Waiting for input...
     Reading input from standard input
Warning: card &CELL ignored
Warning: card   CELL_DYNAMICS='BFGS', ignored
Warning: card   CELL_DOFREE='ALL', ignored
Warning: card / ignored

     Current dimensions of program PWSCF are:
     Max number of different atomic species (ntypx) = 10
     Max number of k-points (npk) =  40000
     Max angular momentum in pseudopotentials (lmaxx) =  3

     File /home/jesus/Documentos/Nanociencia_DFT/silicano.update deleted, as requested

     File /home/jesus/Documentos/Nanociencia_DFT/silicano.bfgs deleted, as requested

     Subspace diagonalization in iterative solution of the eigenvalue problem:
     a serial algorithm will be used

     Message from routine setup:
     using ibrav=0 with symmetry is DISCOURAGED, use correct ibrav instead
 
     G-vector sticks info
     --------------------
     sticks:   dense  smooth     PW     G-vecs:    dense   smooth      PW
     Sum         859     583    187               106353    58117   10183
 


     bravais-lattice index     =            0
     lattice parameter (alat)  =       7.7479  a.u.
     unit-cell volume          =    2071.8916 (a.u.)^3
     number of atoms/cell      =            4
     number of atomic types    =            2
     number of electrons       =        10.00
     number of Kohn-Sham states=            9
     kinetic-energy cutoff     =      35.0000  Ry
     charge density cutoff     =     210.0000  Ry
     convergence threshold     =      1.0E-06
     mixing beta               =       0.7000
     number of iterations used =            8  plain     mixing
     Exchange-correlation= PBE
                           (   1   4   3   4   0   0   0)
     nstep                     =            1


     celldm(1)=   7.747877  celldm(2)=   0.000000  celldm(3)=   0.000000
     celldm(4)=   0.000000  celldm(5)=   0.000000  celldm(6)=   0.000000

     crystal axes: (cart. coord. in units of alat)
               a(1) = (   0.500000   0.866000   0.000000 )  
               a(2) = (  -0.500000   0.866000   0.000000 )  
               a(3) = (   0.000000   0.000000   5.144000 )  

     reciprocal axes: (cart. coord. in units 2 pi/alat)
               b(1) = (  1.000000  0.577367  0.000000 )  
               b(2) = ( -1.000000  0.577367  0.000000 )  
               b(3) = (  0.000000  0.000000  0.194401 )  


     PseudoPot. # 1 for Si read from file:
     /home/jesus/Nanociencia_DFT/pseudopotenciales/Si.pbe-n-rrkjus_psl.1.0.0.UPF
     MD5 check sum: fa25574f73a70a4139f2adfbefec430c
     Pseudo is Ultrasoft + core correction, Zval =  4.0
     Generated using "atomic" code by A. Dal Corso v.6.3
     Using radial grid of 1141 points,  6 beta functions with: 
                l(1) =   0
                l(2) =   0
                l(3) =   1
                l(4) =   1
                l(5) =   2
                l(6) =   2
     Q(r) pseudized with 0 coefficients 


     PseudoPot. # 2 for H  read from file:
     /home/jesus/Nanociencia_DFT/pseudopotenciales/H.pbe-rrkjus_psl.1.0.0.UPF
     MD5 check sum: 3f4114867bd07edc7f1424d066fc1888
     Pseudo is Ultrasoft, Zval =  1.0
     Generated using "atomic" code by A. Dal Corso v.6.3MaX
     Using radial grid of  929 points,  2 beta functions with: 
                l(1) =   0
                l(2) =   0
     Q(r) pseudized with 0 coefficients 


     atomic species   valence    mass     pseudopotential
        Si             4.00    28.08550     Si( 1.00)
        H              1.00     1.00800     H ( 1.00)

      2 Sym. Ops. (no inversion) found



   Cartesian axes

     site n.     atom                  positions (alat units)
         1           H   tau(   1) = (   0.0000000   0.0000000   0.0000000  )
         2           Si  tau(   2) = (   0.0000000   0.0000000   0.3858000  )
         3           Si  tau(   3) = (   0.0000000   0.5767560   0.5709840  )
         4           H   tau(   4) = (   0.0000000   0.5767560   0.9567840  )

     number of k points=    21  Methfessel-Paxton smearing, width (Ry)=  0.0100
                       cart. coord. in units 2pi/alat
        k(    1) = (   0.0000000   0.0000000   0.0000000), wk =   0.0312500
        k(    2) = (  -0.1250000   0.0721709   0.0000000), wk =   0.1250000
        k(    3) = (  -0.2500000   0.1443418   0.0000000), wk =   0.1250000
        k(    4) = (  -0.3750000   0.2165127   0.0000000), wk =   0.1250000
        k(    5) = (   0.5000000  -0.2886836   0.0000000), wk =   0.0625000
        k(    6) = (   0.0000000   0.1443418   0.0000000), wk =   0.0625000
        k(    7) = (  -0.1250000   0.2165127   0.0000000), wk =   0.1250000
        k(    8) = (  -0.2500000   0.2886836   0.0000000), wk =   0.1250000
        k(    9) = (   0.6250000  -0.2165127   0.0000000), wk =   0.1250000
        k(   10) = (   0.5000000  -0.1443418   0.0000000), wk =   0.1250000
        k(   11) = (   0.3750000  -0.0721709   0.0000000), wk =   0.1250000
        k(   12) = (   0.2500000   0.0000000   0.0000000), wk =   0.0625000
        k(   13) = (   0.0000000   0.2886836   0.0000000), wk =   0.0625000
        k(   14) = (  -0.1250000   0.3608545   0.0000000), wk =   0.1250000
        k(   15) = (   0.7500000  -0.1443418   0.0000000), wk =   0.1250000
        k(   16) = (   0.6250000  -0.0721709   0.0000000), wk =   0.1250000
        k(   17) = (   0.5000000   0.0000000   0.0000000), wk =   0.0625000
        k(   18) = (   0.0000000   0.4330254   0.0000000), wk =   0.0625000
        k(   19) = (   0.8750000  -0.0721709   0.0000000), wk =   0.1250000
        k(   20) = (   0.7500000   0.0000000   0.0000000), wk =   0.0625000
        k(   21) = (   0.0000000  -0.5773672   0.0000000), wk =   0.0312500

     Dense  grid:   106353 G-vectors     FFT dimensions: (  36,  36, 192)

     Smooth grid:    58117 G-vectors     FFT dimensions: (  30,  30, 160)

     Estimated max dynamical RAM per process >     401.98 MB

     Initial potential from superposition of free atoms

     starting charge    9.99886, renormalised to   10.00000

     negative rho (up, down):  1.110E-04 0.000E+00
     Starting wfcs are   10 randomized atomic wfcs

     total cpu time spent up to now is        3.4 secs

     Self-consistent Calculation

     iteration #  1     ecut=    35.00 Ry     beta= 0.70
     Davidson diagonalization with overlap
     ethr =  1.00E-02,  avg # of iterations =  2.8

     negative rho (up, down):  8.780E-05 0.000E+00

     total cpu time spent up to now is        8.4 secs

     total energy              =     -25.13051676 Ry
     estimated scf accuracy    <       0.13604200 Ry

     iteration #  2     ecut=    35.00 Ry     beta= 0.70
     Davidson diagonalization with overlap
     ethr =  1.36E-03,  avg # of iterations =  1.6

     negative rho (up, down):  9.975E-05 0.000E+00

     total cpu time spent up to now is       12.3 secs

     total energy              =     -25.13906635 Ry
     estimated scf accuracy    <       0.00567355 Ry

     iteration #  3     ecut=    35.00 Ry     beta= 0.70
     Davidson diagonalization with overlap
     ethr =  5.67E-05,  avg # of iterations =  6.5

     negative rho (up, down):  1.027E-04 0.000E+00

     total cpu time spent up to now is       18.3 secs

     total energy              =     -25.14004761 Ry
     estimated scf accuracy    <       0.00060730 Ry

     iteration #  4     ecut=    35.00 Ry     beta= 0.70
     Davidson diagonalization with overlap
     ethr =  6.07E-06,  avg # of iterations =  4.1

     negative rho (up, down):  1.056E-04 0.000E+00

     total cpu time spent up to now is       23.0 secs

     total energy              =     -25.14014716 Ry
     estimated scf accuracy    <       0.00002811 Ry

     iteration #  5     ecut=    35.00 Ry     beta= 0.70
     Davidson diagonalization with overlap
     ethr =  2.81E-07,  avg # of iterations =  2.5

     negative rho (up, down):  1.055E-04 0.000E+00

     total cpu time spent up to now is       27.3 secs

     total energy              =     -25.14015037 Ry
     estimated scf accuracy    <       0.00000535 Ry

     iteration #  6     ecut=    35.00 Ry     beta= 0.70
     Davidson diagonalization with overlap
     ethr =  5.35E-08,  avg # of iterations =  1.2

     negative rho (up, down):  1.054E-04 0.000E+00

     total cpu time spent up to now is       31.1 secs

     End of self-consistent calculation

          k = 0.0000 0.0000 0.0000 (  7317 PWs)   bands (ev):

   -13.2996  -9.0675  -6.0113  -3.7626  -3.7478  -1.9853  -0.0138   0.0027
     0.2728

          k =-0.1250 0.0722 0.0000 (  7279 PWs)   bands (ev):

   -13.1517  -9.0634  -6.0152  -4.8384  -4.0144  -1.1935   0.0402   0.4348
     0.5045

          k =-0.2500 0.1443 0.0000 (  7243 PWs)   bands (ev):

   -12.7215  -9.1775  -6.2027  -5.9902  -4.4824  -1.3194   0.5774   0.8552
     1.5646

          k =-0.3750 0.2165 0.0000 (  7248 PWs)   bands (ev):

   -12.0761  -9.6981  -6.7913  -6.1249  -4.8385  -1.5804   0.2895   0.7596
     2.2107

          k = 0.5000-0.2887 0.0000 (  7248 PWs)   bands (ev):

   -11.6006 -10.2036  -6.8767  -6.2027  -4.9660  -1.6492  -0.0139   0.7661
     2.2967

          k = 0.0000 0.1443 0.0000 (  7279 PWs)   bands (ev):

   -13.1515  -9.0637  -6.0154  -4.8460  -4.0052  -1.1921   0.0466   0.4351
     0.4942

          k =-0.1250 0.2165 0.0000 (  7247 PWs)   bands (ev):

   -12.8615  -9.1152  -6.0421  -5.7708  -4.5572  -0.4789  -0.1037   0.6090
     1.7199

          k =-0.2500 0.2887 0.0000 (  7234 PWs)   bands (ev):

   -12.3127  -9.4421  -6.5388  -6.1187  -5.1580  -0.6141   0.6218   0.7086
     1.4336

          k = 0.6250-0.2165 0.0000 (  7238 PWs)   bands (ev):

   -11.6474 -10.0934  -6.7927  -6.2114  -5.4708  -0.7183   0.1749   0.7848
     1.6622

          k = 0.5000-0.1443 0.0000 (  7238 PWs)   bands (ev):

   -11.6484 -10.0918  -6.7928  -6.2102  -5.4728  -0.7176   0.1746   0.7855
     1.6613

          k = 0.3750-0.0722 0.0000 (  7234 PWs)   bands (ev):

   -12.3137  -9.4400  -6.5369  -6.1170  -5.1636  -0.6125   0.6216   0.7108
     1.4284

          k = 0.2500 0.0000 0.0000 (  7247 PWs)   bands (ev):

   -12.8621  -9.1142  -6.0414  -5.7637  -4.5669  -0.4733  -0.1133   0.6100
     1.7234

          k = 0.0000 0.2887 0.0000 (  7243 PWs)   bands (ev):

   -12.7206  -9.1793  -6.2076  -5.9911  -4.4756  -1.3131   0.5772   0.8555
     1.5584

          k =-0.1250 0.3609 0.0000 (  7234 PWs)   bands (ev):

   -12.3118  -9.4440  -6.5414  -6.1185  -5.1551  -0.6079   0.6208   0.7106
     1.4292

          k = 0.7500-0.1443 0.0000 (  7235 PWs)   bands (ev):

   -11.6882  -9.9862  -6.5739  -6.3502  -5.8896   0.4270   0.4964   1.1192
     1.4340

          k = 0.6250-0.0722 0.0000 (  7250 PWs)   bands (ev):

   -11.1534 -10.5046  -6.6209  -6.3070  -6.2289   0.3276   0.7800   0.9440
     1.2650

          k = 0.5000 0.0000 0.0000 (  7235 PWs)   bands (ev):

   -11.6912  -9.9810  -6.5721  -6.3483  -5.8956   0.4287   0.4942   1.1253
     1.4295

          k = 0.0000 0.4330 0.0000 (  7248 PWs)   bands (ev):

   -12.0730  -9.7039  -6.7932  -6.1264  -4.8330  -1.5739   0.2905   0.7586
     2.2092

          k = 0.8750-0.0722 0.0000 (  7238 PWs)   bands (ev):

   -11.6428 -10.1007  -6.7936  -6.2126  -5.4666  -0.7121   0.1759   0.7839
     1.6621

          k = 0.7500 0.0000 0.0000 (  7250 PWs)   bands (ev):

   -11.1464 -10.5131  -6.6223  -6.3084  -6.2246   0.3282   0.7784   0.9446
     1.2712

          k = 0.0000-0.5774 0.0000 (  7248 PWs)   bands (ev):

   -11.5934 -10.2145  -6.8767  -6.2051  -4.9608  -1.6427  -0.0126   0.7642
     2.2964

     the Fermi energy is    -3.6406 ev

!    total energy              =     -25.14015110 Ry
     estimated scf accuracy    <       0.00000042 Ry
     smearing contrib. (-TS)   =       0.00001989 Ry
     internal energy E=F+TS    =     -25.14017099 Ry

     The total energy is F=E-TS. E is the sum of the following terms:
     one-electron contribution =    -106.56141547 Ry
     hartree contribution      =      54.46190797 Ry
     xc contribution           =     -13.44314464 Ry
     ewald contribution        =      40.40248114 Ry

     convergence has been achieved in   6 iterations

     negative rho (up, down):  1.054E-04 0.000E+00

     Forces acting on atoms (cartesian axes, Ry/au):

     atom    1 type  2   force =     0.00000000   -0.00000305    0.04259896
     atom    2 type  1   force =     0.00000000   -0.00071916   -0.00869939
     atom    3 type  1   force =     0.00000000    0.00072382    0.00855885
     atom    4 type  2   force =     0.00000000   -0.00000161   -0.04245842

     Total force =     0.061379     Total SCF correction =     0.000284

     BFGS Geometry Optimization

     number of scf cycles    =   1
     number of bfgs steps    =   0

     energy   new            =     -25.1401511017 Ry

     new trust radius        =       0.0425989566 bohr

     The maximum number of steps has been reached.

     End of BFGS Geometry Optimization

ATOMIC_POSITIONS (crystal)
H            -0.0000002275       -0.0000002275        0.0010688463
Si           -0.0000535910       -0.0000535910        0.0747817245
Si            0.3330539384        0.3330539384        0.1112147493
H             0.3329998801        0.3329998801        0.1849346799



     Writing output data file /home/jesus/Documentos/Nanociencia_DFT/silicano.save/
     NEW-OLD atomic charge density approx. for the potential

     negative rho (up, down):  1.068E-04 0.000E+00

     Writing output data file /home/jesus/Documentos/Nanociencia_DFT/silicano.save/
 
     init_run     :      2.28s CPU      2.51s WALL (       1 calls)
     electrons    :     26.04s CPU     27.68s WALL (       1 calls)
     update_pot   :      0.64s CPU      0.64s WALL (       1 calls)
     forces       :      1.04s CPU      1.19s WALL (       1 calls)

     Called by init_run:
     wfcinit      :      1.10s CPU      1.11s WALL (       1 calls)
     potinit      :      0.33s CPU      0.35s WALL (       1 calls)
     hinit0       :      0.54s CPU      0.57s WALL (       1 calls)

     Called by electrons:
     c_bands      :     18.61s CPU     18.66s WALL (       6 calls)
     sum_band     :      5.02s CPU      5.79s WALL (       6 calls)
     v_of_rho     :      0.85s CPU      0.90s WALL (       8 calls)
     newd         :      2.16s CPU      3.24s WALL (       8 calls)
     mix_rho      :      0.10s CPU      0.10s WALL (       6 calls)

     Called by c_bands:
     init_us_2    :      0.73s CPU      0.75s WALL (     294 calls)
     cegterg      :     15.70s CPU     15.74s WALL (     126 calls)

     Called by *egterg:
     cdiaghg      :      0.08s CPU      0.08s WALL (     521 calls)
     h_psi        :     14.82s CPU     14.85s WALL (     542 calls)
     s_psi        :      0.52s CPU      0.52s WALL (     542 calls)
     g_psi        :      0.05s CPU      0.05s WALL (     395 calls)

     Called by h_psi:
     h_psi:calbec :      0.56s CPU      0.56s WALL (     542 calls)
     vloc_psi     :     13.67s CPU     13.70s WALL (     542 calls)
     add_vuspsi   :      0.51s CPU      0.52s WALL (     542 calls)

     General routines
     calbec       :      0.81s CPU      0.82s WALL (     752 calls)
     fft          :      0.36s CPU      0.38s WALL (     114 calls)
     ffts         :      0.02s CPU      0.02s WALL (      14 calls)
     fftw         :     13.79s CPU     13.82s WALL (    7920 calls)
     interpolate  :      0.06s CPU      0.06s WALL (       8 calls)
     davcio       :      0.01s CPU      0.44s WALL (      21 calls)
 
     Parallel routines
 
     PWSCF        :     31.20s CPU     33.87s WALL

 
   This run was terminated on:  23: 2: 6   1Apr2021            

=------------------------------------------------------------------------------=
   JOB DONE.
=------------------------------------------------------------------------------=
