
     Program PWSCF v.6.6 starts on 31Mar2021 at 17: 4:48 

     This program is part of the open-source Quantum ESPRESSO suite
     for quantum simulation of materials; please cite
         "P. Giannozzi et al., J. Phys.:Condens. Matter 21 395502 (2009);
         "P. Giannozzi et al., J. Phys.:Condens. Matter 29 465901 (2017);
          URL http://www.quantum-espresso.org", 
     in publications or presentations arising from this work. More details at
     http://www.quantum-espresso.org/quote

     Parallel version (MPI), running on     1 processors

     MPI processes distributed on     1 nodes
     Fft bands division:     nmany     =       1
     Waiting for input...
     Reading input from standard input
Warning: card &CELL ignored
Warning: card   CELL_DYNAMICS='BFGS', ignored
Warning: card   CELL_DOFREE='ALL', ignored
Warning: card / ignored

     Current dimensions of program PWSCF are:
     Max number of different atomic species (ntypx) = 10
     Max number of k-points (npk) =  40000
     Max angular momentum in pseudopotentials (lmaxx) =  3
     file H.pbe-kjpaw_psl.1.0.0.UPF: wavefunction(s)  1S renormalized

     Subspace diagonalization in iterative solution of the eigenvalue problem:
     a serial algorithm will be used

     Message from routine setup:
     using ibrav=0 with symmetry is DISCOURAGED, use correct ibrav instead
 
     G-vector sticks info
     --------------------
     sticks:   dense  smooth     PW     G-vecs:    dense   smooth      PW
     Sum         463     313    109                41601    22777    4467
 


     bravais-lattice index     =            0
     lattice parameter (alat)  =       5.6692  a.u.
     unit-cell volume          =     811.6695 (a.u.)^3
     number of atoms/cell      =            4
     number of atomic types    =            2
     number of electrons       =        10.00
     number of Kohn-Sham states=            9
     kinetic-energy cutoff     =      35.0000  Ry
     charge density cutoff     =     210.0000  Ry
     convergence threshold     =      1.0E-06
     mixing beta               =       0.7000
     number of iterations used =            8  plain     mixing
     Exchange-correlation= SLA PW PBX PBC
                           (   1   4   3   4   0   0   0)
     nstep                     =            1


     celldm(1)=   5.669178  celldm(2)=   0.000000  celldm(3)=   0.000000
     celldm(4)=   0.000000  celldm(5)=   0.000000  celldm(6)=   0.000000

     crystal axes: (cart. coord. in units of alat)
               a(1) = (   0.500000   0.866000   0.000000 )  
               a(2) = (  -0.500000   0.866000   0.000000 )  
               a(3) = (   0.000000   0.000000   5.144000 )  

     reciprocal axes: (cart. coord. in units 2 pi/alat)
               b(1) = (  1.000000  0.577367  0.000000 )  
               b(2) = ( -1.000000  0.577367  0.000000 )  
               b(3) = (  0.000000  0.000000  0.194401 )  


     PseudoPot. # 1 for Si read from file:
     /home/jesus/Nanociencia_DFT/pseudopotenciales/Si.pbe-n-rrkjus_psl.1.0.0.UPF
     MD5 check sum: fa25574f73a70a4139f2adfbefec430c
     Pseudo is Ultrasoft + core correction, Zval =  4.0
     Generated using "atomic" code by A. Dal Corso v.6.3
     Using radial grid of 1141 points,  6 beta functions with: 
                l(1) =   0
                l(2) =   0
                l(3) =   1
                l(4) =   1
                l(5) =   2
                l(6) =   2
     Q(r) pseudized with 0 coefficients 


     PseudoPot. # 2 for H  read from file:
     /home/jesus/Nanociencia_DFT/pseudopotenciales/H.pbe-kjpaw_psl.1.0.0.UPF
     MD5 check sum: d81a744832360e4a8af0b0b5b123bc2a
     Pseudo is Projector augmented-wave, Zval =  1.0
     Generated using "atomic" code by A. Dal Corso v.6.3MaX
     Shape of augmentation charge: PSQ
     Using radial grid of  929 points,  2 beta functions with: 
                l(1) =   0
                l(2) =   0
     Q(r) pseudized with 0 coefficients 


     atomic species   valence    mass     pseudopotential
        Si             4.00    28.08550     Si( 1.00)
        H              1.00     1.00800     H ( 1.00)

      2 Sym. Ops. (no inversion) found



   Cartesian axes

     site n.     atom                  positions (alat units)
         1           H   tau(   1) = (   0.0000000   0.0000000   0.0000000  )
         2           Si  tau(   2) = (   0.0000000   0.0000000   0.3858000  )
         3           Si  tau(   3) = (   0.0000000   0.5767560   0.5709840  )
         4           H   tau(   4) = (   0.0000000   0.5767560   0.9567840  )

     number of k points=    21  Methfessel-Paxton smearing, width (Ry)=  0.0100
                       cart. coord. in units 2pi/alat
        k(    1) = (   0.0000000   0.0000000   0.0000000), wk =   0.0312500
        k(    2) = (  -0.1250000   0.0721709   0.0000000), wk =   0.1250000
        k(    3) = (  -0.2500000   0.1443418   0.0000000), wk =   0.1250000
        k(    4) = (  -0.3750000   0.2165127   0.0000000), wk =   0.1250000
        k(    5) = (   0.5000000  -0.2886836   0.0000000), wk =   0.0625000
        k(    6) = (   0.0000000   0.1443418   0.0000000), wk =   0.0625000
        k(    7) = (  -0.1250000   0.2165127   0.0000000), wk =   0.1250000
        k(    8) = (  -0.2500000   0.2886836   0.0000000), wk =   0.1250000
        k(    9) = (   0.6250000  -0.2165127   0.0000000), wk =   0.1250000
        k(   10) = (   0.5000000  -0.1443418   0.0000000), wk =   0.1250000
        k(   11) = (   0.3750000  -0.0721709   0.0000000), wk =   0.1250000
        k(   12) = (   0.2500000   0.0000000   0.0000000), wk =   0.0625000
        k(   13) = (   0.0000000   0.2886836   0.0000000), wk =   0.0625000
        k(   14) = (  -0.1250000   0.3608545   0.0000000), wk =   0.1250000
        k(   15) = (   0.7500000  -0.1443418   0.0000000), wk =   0.1250000
        k(   16) = (   0.6250000  -0.0721709   0.0000000), wk =   0.1250000
        k(   17) = (   0.5000000   0.0000000   0.0000000), wk =   0.0625000
        k(   18) = (   0.0000000   0.4330254   0.0000000), wk =   0.0625000
        k(   19) = (   0.8750000  -0.0721709   0.0000000), wk =   0.1250000
        k(   20) = (   0.7500000   0.0000000   0.0000000), wk =   0.0625000
        k(   21) = (   0.0000000  -0.5773672   0.0000000), wk =   0.0312500

     Dense  grid:    41601 G-vectors     FFT dimensions: (  27,  27, 135)

     Smooth grid:    22777 G-vectors     FFT dimensions: (  24,  24, 120)

     Estimated max dynamical RAM per process >     158.75 MB

     Initial potential from superposition of free atoms

     starting charge    9.99886, renormalised to   10.00000

     negative rho (up, down):  4.807E-05 0.000E+00
     Starting wfcs are   10 randomized atomic wfcs
     Checking if some PAW data can be deallocated... 

     total cpu time spent up to now is        2.4 secs

     Self-consistent Calculation

     iteration #  1     ecut=    35.00 Ry     beta= 0.70
     Davidson diagonalization with overlap
     ethr =  1.00E-02,  avg # of iterations =  5.6

     negative rho (up, down):  3.698E-05 0.000E+00

     total cpu time spent up to now is        5.4 secs

     total energy              =     -24.19159638 Ry
     estimated scf accuracy    <       0.44206115 Ry

     iteration #  2     ecut=    35.00 Ry     beta= 0.70
     Davidson diagonalization with overlap
     ethr =  4.42E-03,  avg # of iterations =  2.0

     negative rho (up, down):  6.384E-05 0.000E+00

     total cpu time spent up to now is        7.3 secs

     total energy              =     -24.24209311 Ry
     estimated scf accuracy    <       0.01107523 Ry

     iteration #  3     ecut=    35.00 Ry     beta= 0.70
     Davidson diagonalization with overlap
     ethr =  1.11E-04,  avg # of iterations =  6.7

     negative rho (up, down):  7.959E-05 0.000E+00

     total cpu time spent up to now is       10.1 secs

     total energy              =     -24.24471249 Ry
     estimated scf accuracy    <       0.00068591 Ry

     iteration #  4     ecut=    35.00 Ry     beta= 0.70
     Davidson diagonalization with overlap
     c_bands:  1 eigenvalues not converged
     c_bands:  1 eigenvalues not converged
     ethr =  6.86E-06,  avg # of iterations =  8.4

     negative rho (up, down):  8.719E-05 0.000E+00

     total cpu time spent up to now is       12.8 secs

     total energy              =     -24.24485964 Ry
     estimated scf accuracy    <       0.00002864 Ry

     iteration #  5     ecut=    35.00 Ry     beta= 0.70
     Davidson diagonalization with overlap
     ethr =  2.86E-07,  avg # of iterations =  2.7

     negative rho (up, down):  8.753E-05 0.000E+00

     total cpu time spent up to now is       14.9 secs

     total energy              =     -24.24486186 Ry
     estimated scf accuracy    <       0.00001355 Ry

     iteration #  6     ecut=    35.00 Ry     beta= 0.70
     Davidson diagonalization with overlap
     ethr =  1.36E-07,  avg # of iterations =  1.7

     negative rho (up, down):  8.801E-05 0.000E+00

     total cpu time spent up to now is       16.8 secs

     End of self-consistent calculation

          k = 0.0000 0.0000 0.0000 (  2875 PWs)   bands (ev):

   -15.9973  -9.9976  -4.8117   0.3051   0.3184   2.1591   2.8981   3.5813
     3.9262

          k =-0.1250 0.0722 0.0000 (  2853 PWs)   bands (ev):

   -15.6820  -9.7618  -4.7280  -1.6751  -0.4771   2.4860   3.1594   3.4474
     4.4252

          k =-0.2500 0.1443 0.0000 (  2849 PWs)   bands (ev):

   -14.7482  -9.1355  -5.0643  -4.2140  -1.5856   1.8604   3.5877   4.0533
     4.5609

          k =-0.3750 0.2165 0.0000 (  2833 PWs)   bands (ev):

   -13.2512  -8.9479  -6.9821  -4.5630  -2.3211   1.1278   2.3043   5.0550
     5.7785

          k = 0.5000-0.2887 0.0000 (  2832 PWs)   bands (ev):

   -11.7753 -10.4004  -6.8245  -4.9186  -2.5722   0.8020   1.8841   4.9800
     7.0526

          k = 0.0000 0.1443 0.0000 (  2853 PWs)   bands (ev):

   -15.6819  -9.7617  -4.7280  -1.6807  -0.4705   2.4892   3.1595   3.4499
     4.4240

          k =-0.1250 0.2165 0.0000 (  2845 PWs)   bands (ev):

   -15.0569  -9.3244  -4.6611  -3.4819  -2.1762   3.1885   3.6558   4.2219
     4.3558

          k =-0.2500 0.2887 0.0000 (  2846 PWs)   bands (ev):

   -13.8356  -8.7155  -6.0378  -4.6512  -3.4209   2.8886   3.2833   4.7321
     5.0503

          k = 0.6250-0.2165 0.0000 (  2840 PWs)   bands (ev):

   -12.1467  -9.6202  -6.8355  -4.8895  -4.0942   2.0702   2.6746   5.0369
     5.8852

          k = 0.5000-0.1443 0.0000 (  2840 PWs)   bands (ev):

   -12.1471  -9.6194  -6.8362  -4.8893  -4.0939   2.0700   2.6753   5.0340
     5.8856

          k = 0.3750-0.0722 0.0000 (  2846 PWs)   bands (ev):

   -13.8359  -8.7153  -6.0370  -4.6510  -3.4219   2.8896   3.2853   4.7266
     5.0489

          k = 0.2500 0.0000 0.0000 (  2845 PWs)   bands (ev):

   -15.0571  -9.3246  -4.6612  -3.4758  -2.1828   3.1886   3.6557   4.2224
     4.3477

          k = 0.0000 0.2887 0.0000 (  2849 PWs)   bands (ev):

   -14.7480  -9.1354  -5.0637  -4.2185  -1.5810   1.8650   3.5864   4.0521
     4.5612

          k =-0.1250 0.3609 0.0000 (  2846 PWs)   bands (ev):

   -13.8353  -8.7157  -6.0374  -4.6539  -3.4187   2.8931   3.2844   4.7303
     5.0496

          k = 0.7500-0.1443 0.0000 (  2809 PWs)   bands (ev):

   -12.3791  -8.8226  -6.4199  -6.1201  -4.4634   2.4979   3.5632   4.9418
     6.2857

          k = 0.6250-0.0722 0.0000 (  2826 PWs)   bands (ev):

   -10.9069  -9.9603  -7.1858  -5.5763  -5.0701   1.9334   4.2177   4.3059
     6.8645

          k = 0.5000 0.0000 0.0000 (  2809 PWs)   bands (ev):

   -12.3802  -8.8195  -6.4241  -6.1200  -4.4606   2.4949   3.5649   4.9405
     6.2797

          k = 0.0000 0.4330 0.0000 (  2833 PWs)   bands (ev):

   -13.2502  -8.9499  -6.9797  -4.5680  -2.3173   1.1304   2.3073   5.0512
     5.7788

          k = 0.8750-0.0722 0.0000 (  2840 PWs)   bands (ev):

   -12.1447  -9.6239  -6.8313  -4.8954  -4.0918   2.0753   2.6770   5.0332
     5.8836

          k = 0.7500 0.0000 0.0000 (  2826 PWs)   bands (ev):

   -10.9020  -9.9673  -7.1825  -5.5721  -5.0763   1.9364   4.2156   4.3073
     6.8664

          k = 0.0000-0.5774 0.0000 (  2832 PWs)   bands (ev):

   -11.7702 -10.4072  -6.8187  -4.9267  -2.5686   0.8033   1.8903   4.9731
     7.0548

     the Fermi energy is     0.4272 ev

!    total energy              =     -24.24486449 Ry
     estimated scf accuracy    <       0.00000033 Ry
     smearing contrib. (-TS)   =       0.00001948 Ry
     internal energy E=F+TS    =     -24.24488397 Ry

     The total energy is F=E-TS. E is the sum of the following terms:
     one-electron contribution =    -133.74022101 Ry
     hartree contribution      =      69.17458268 Ry
     xc contribution           =     -14.89575055 Ry
     ewald contribution        =      55.21672424 Ry
     one-center paw contrib.   =      -0.00021933 Ry

     convergence has been achieved in   6 iterations

     negative rho (up, down):  8.801E-05 0.000E+00

     Forces acting on atoms (cartesian axes, Ry/au):

     atom    1 type  2   force =     0.00000000   -0.00005340   -0.50732792
     atom    2 type  1   force =     0.00000000   -0.00457717   -0.01084049
     atom    3 type  1   force =     0.00000000    0.00456998    0.01076191
     atom    4 type  2   force =     0.00000000    0.00006059    0.50740650

     Total force =     0.717717     Total SCF correction =     0.000841

     BFGS Geometry Optimization

     number of scf cycles    =   1
     number of bfgs steps    =   0

     energy   new            =     -24.2448644852 Ry

     new trust radius        =       0.5000000000 bohr

     The maximum number of steps has been reached.

     End of BFGS Geometry Optimization

ATOMIC_POSITIONS (crystal)
H            -0.0000053587       -0.0000053587       -0.0171427959
Si           -0.0004593493       -0.0004593493        0.0746336959
Si            0.3334586275        0.3334586275        0.1113636488
H             0.3330060806        0.3330060806        0.2031454512



     Writing output data file /home/jesus/Documentos/Nanociencia_DFT/silicano.save/
     NEW-OLD atomic charge density approx. for the potential

     negative rho (up, down):  6.542E-05 0.000E+00

     Writing output data file /home/jesus/Documentos/Nanociencia_DFT/silicano.save/
 
     init_run     :      1.32s CPU      1.43s WALL (       1 calls)
     electrons    :     13.54s CPU     14.40s WALL (       1 calls)
     update_pot   :      0.27s CPU      0.28s WALL (       1 calls)
     forces       :      0.47s CPU      0.57s WALL (       1 calls)

     Called by init_run:
     wfcinit      :      0.53s CPU      0.54s WALL (       1 calls)
     potinit      :      0.17s CPU      0.18s WALL (       1 calls)
     hinit0       :      0.47s CPU      0.50s WALL (       1 calls)

     Called by electrons:
     c_bands      :     10.07s CPU     10.13s WALL (       6 calls)
     sum_band     :      2.35s CPU      2.76s WALL (       6 calls)
     v_of_rho     :      0.45s CPU      0.48s WALL (       8 calls)
     newd         :      0.93s CPU      1.42s WALL (       8 calls)
     PAW_pot      :      0.01s CPU      0.02s WALL (       9 calls)
     mix_rho      :      0.04s CPU      0.05s WALL (       6 calls)

     Called by c_bands:
     init_us_2    :      0.36s CPU      0.36s WALL (     315 calls)
     cegterg      :      8.79s CPU      8.85s WALL (     126 calls)

     Called by *egterg:
     cdiaghg      :      0.12s CPU      0.12s WALL (     695 calls)
     h_psi        :      8.20s CPU      8.27s WALL (     716 calls)
     s_psi        :      0.26s CPU      0.26s WALL (     716 calls)
     g_psi        :      0.03s CPU      0.03s WALL (     569 calls)

     Called by h_psi:
     h_psi:calbec :      0.32s CPU      0.32s WALL (     716 calls)
     vloc_psi     :      7.56s CPU      7.62s WALL (     716 calls)
     add_vuspsi   :      0.29s CPU      0.29s WALL (     716 calls)

     General routines
     calbec       :      0.44s CPU      0.45s WALL (     947 calls)
     fft          :      0.20s CPU      0.22s WALL (     114 calls)
     ffts         :      0.01s CPU      0.01s WALL (      14 calls)
     fftw         :      7.36s CPU      7.42s WALL (    8498 calls)
     interpolate  :      0.03s CPU      0.03s WALL (       8 calls)
     davcio       :      0.00s CPU      0.01s WALL (      21 calls)
 
     Parallel routines
 
     PWSCF        :     16.70s CPU     17.92s WALL

 
   This run was terminated on:  17: 5: 6  31Mar2021            

=------------------------------------------------------------------------------=
   JOB DONE.
=------------------------------------------------------------------------------=
