
     Program PWSCF v.6.6 starts on 31Mar2021 at 17: 5:52 

     This program is part of the open-source Quantum ESPRESSO suite
     for quantum simulation of materials; please cite
         "P. Giannozzi et al., J. Phys.:Condens. Matter 21 395502 (2009);
         "P. Giannozzi et al., J. Phys.:Condens. Matter 29 465901 (2017);
          URL http://www.quantum-espresso.org", 
     in publications or presentations arising from this work. More details at
     http://www.quantum-espresso.org/quote

     Parallel version (MPI), running on     1 processors

     MPI processes distributed on     1 nodes
     Fft bands division:     nmany     =       1
     Waiting for input...
     Reading input from standard input
Warning: card &CELL ignored
Warning: card   CELL_DYNAMICS='BFGS', ignored
Warning: card   CELL_DOFREE='ALL', ignored
Warning: card / ignored

     Current dimensions of program PWSCF are:
     Max number of different atomic species (ntypx) = 10
     Max number of k-points (npk) =  40000
     Max angular momentum in pseudopotentials (lmaxx) =  3

     File /home/jesus/Documentos/Nanociencia_DFT/silicano.update deleted, as requested

     File /home/jesus/Documentos/Nanociencia_DFT/silicano.bfgs deleted, as requested
     file H.pbe-kjpaw_psl.1.0.0.UPF: wavefunction(s)  1S renormalized

     Subspace diagonalization in iterative solution of the eigenvalue problem:
     a serial algorithm will be used

     Message from routine setup:
     using ibrav=0 with symmetry is DISCOURAGED, use correct ibrav instead
 
     G-vector sticks info
     --------------------
     sticks:   dense  smooth     PW     G-vecs:    dense   smooth      PW
     Sum         559     379    121                55473    30219    5733
 


     bravais-lattice index     =            0
     lattice parameter (alat)  =       6.2361  a.u.
     unit-cell volume          =    1080.3321 (a.u.)^3
     number of atoms/cell      =            4
     number of atomic types    =            2
     number of electrons       =        10.00
     number of Kohn-Sham states=            9
     kinetic-energy cutoff     =      35.0000  Ry
     charge density cutoff     =     210.0000  Ry
     convergence threshold     =      1.0E-06
     mixing beta               =       0.7000
     number of iterations used =            8  plain     mixing
     Exchange-correlation= SLA PW PBX PBC
                           (   1   4   3   4   0   0   0)
     nstep                     =            1


     celldm(1)=   6.236096  celldm(2)=   0.000000  celldm(3)=   0.000000
     celldm(4)=   0.000000  celldm(5)=   0.000000  celldm(6)=   0.000000

     crystal axes: (cart. coord. in units of alat)
               a(1) = (   0.500000   0.866000   0.000000 )  
               a(2) = (  -0.500000   0.866000   0.000000 )  
               a(3) = (   0.000000   0.000000   5.144000 )  

     reciprocal axes: (cart. coord. in units 2 pi/alat)
               b(1) = (  1.000000  0.577367  0.000000 )  
               b(2) = ( -1.000000  0.577367  0.000000 )  
               b(3) = (  0.000000  0.000000  0.194401 )  


     PseudoPot. # 1 for Si read from file:
     /home/jesus/Nanociencia_DFT/pseudopotenciales/Si.pbe-n-rrkjus_psl.1.0.0.UPF
     MD5 check sum: fa25574f73a70a4139f2adfbefec430c
     Pseudo is Ultrasoft + core correction, Zval =  4.0
     Generated using "atomic" code by A. Dal Corso v.6.3
     Using radial grid of 1141 points,  6 beta functions with: 
                l(1) =   0
                l(2) =   0
                l(3) =   1
                l(4) =   1
                l(5) =   2
                l(6) =   2
     Q(r) pseudized with 0 coefficients 


     PseudoPot. # 2 for H  read from file:
     /home/jesus/Nanociencia_DFT/pseudopotenciales/H.pbe-kjpaw_psl.1.0.0.UPF
     MD5 check sum: d81a744832360e4a8af0b0b5b123bc2a
     Pseudo is Projector augmented-wave, Zval =  1.0
     Generated using "atomic" code by A. Dal Corso v.6.3MaX
     Shape of augmentation charge: PSQ
     Using radial grid of  929 points,  2 beta functions with: 
                l(1) =   0
                l(2) =   0
     Q(r) pseudized with 0 coefficients 


     atomic species   valence    mass     pseudopotential
        Si             4.00    28.08550     Si( 1.00)
        H              1.00     1.00800     H ( 1.00)

      2 Sym. Ops. (no inversion) found



   Cartesian axes

     site n.     atom                  positions (alat units)
         1           H   tau(   1) = (   0.0000000   0.0000000   0.0000000  )
         2           Si  tau(   2) = (   0.0000000   0.0000000   0.3858000  )
         3           Si  tau(   3) = (   0.0000000   0.5767560   0.5709840  )
         4           H   tau(   4) = (   0.0000000   0.5767560   0.9567840  )

     number of k points=    21  Methfessel-Paxton smearing, width (Ry)=  0.0100
                       cart. coord. in units 2pi/alat
        k(    1) = (   0.0000000   0.0000000   0.0000000), wk =   0.0312500
        k(    2) = (  -0.1250000   0.0721709   0.0000000), wk =   0.1250000
        k(    3) = (  -0.2500000   0.1443418   0.0000000), wk =   0.1250000
        k(    4) = (  -0.3750000   0.2165127   0.0000000), wk =   0.1250000
        k(    5) = (   0.5000000  -0.2886836   0.0000000), wk =   0.0625000
        k(    6) = (   0.0000000   0.1443418   0.0000000), wk =   0.0625000
        k(    7) = (  -0.1250000   0.2165127   0.0000000), wk =   0.1250000
        k(    8) = (  -0.2500000   0.2886836   0.0000000), wk =   0.1250000
        k(    9) = (   0.6250000  -0.2165127   0.0000000), wk =   0.1250000
        k(   10) = (   0.5000000  -0.1443418   0.0000000), wk =   0.1250000
        k(   11) = (   0.3750000  -0.0721709   0.0000000), wk =   0.1250000
        k(   12) = (   0.2500000   0.0000000   0.0000000), wk =   0.0625000
        k(   13) = (   0.0000000   0.2886836   0.0000000), wk =   0.0625000
        k(   14) = (  -0.1250000   0.3608545   0.0000000), wk =   0.1250000
        k(   15) = (   0.7500000  -0.1443418   0.0000000), wk =   0.1250000
        k(   16) = (   0.6250000  -0.0721709   0.0000000), wk =   0.1250000
        k(   17) = (   0.5000000   0.0000000   0.0000000), wk =   0.0625000
        k(   18) = (   0.0000000   0.4330254   0.0000000), wk =   0.0625000
        k(   19) = (   0.8750000  -0.0721709   0.0000000), wk =   0.1250000
        k(   20) = (   0.7500000   0.0000000   0.0000000), wk =   0.0625000
        k(   21) = (   0.0000000  -0.5773672   0.0000000), wk =   0.0312500

     Dense  grid:    55473 G-vectors     FFT dimensions: (  30,  30, 150)

     Smooth grid:    30219 G-vectors     FFT dimensions: (  24,  24, 125)

     Estimated max dynamical RAM per process >     211.14 MB

     Initial potential from superposition of free atoms

     starting charge    9.99886, renormalised to   10.00000

     negative rho (up, down):  6.489E-05 0.000E+00
     Starting wfcs are   10 randomized atomic wfcs
     Checking if some PAW data can be deallocated... 

     total cpu time spent up to now is        2.5 secs

     Self-consistent Calculation

     iteration #  1     ecut=    35.00 Ry     beta= 0.70
     Davidson diagonalization with overlap
     ethr =  1.00E-02,  avg # of iterations =  5.2

     negative rho (up, down):  5.383E-05 0.000E+00

     total cpu time spent up to now is        5.7 secs

     total energy              =     -24.81635030 Ry
     estimated scf accuracy    <       0.31642994 Ry

     iteration #  2     ecut=    35.00 Ry     beta= 0.70
     Davidson diagonalization with overlap
     ethr =  3.16E-03,  avg # of iterations =  2.0

     negative rho (up, down):  7.643E-05 0.000E+00

     total cpu time spent up to now is        8.0 secs

     total energy              =     -24.84496069 Ry
     estimated scf accuracy    <       0.00588332 Ry

     iteration #  3     ecut=    35.00 Ry     beta= 0.70
     Davidson diagonalization with overlap
     ethr =  5.88E-05,  avg # of iterations =  9.4

     negative rho (up, down):  8.593E-05 0.000E+00

     total cpu time spent up to now is       11.4 secs

     total energy              =     -24.84620232 Ry
     estimated scf accuracy    <       0.00028829 Ry

     iteration #  4     ecut=    35.00 Ry     beta= 0.70
     Davidson diagonalization with overlap
     c_bands:  1 eigenvalues not converged
     ethr =  2.88E-06,  avg # of iterations =  7.8

     negative rho (up, down):  9.044E-05 0.000E+00

     total cpu time spent up to now is       14.4 secs

     total energy              =     -24.84623498 Ry
     estimated scf accuracy    <       0.00002290 Ry

     iteration #  5     ecut=    35.00 Ry     beta= 0.70
     Davidson diagonalization with overlap
     ethr =  2.29E-07,  avg # of iterations =  2.3

     negative rho (up, down):  9.075E-05 0.000E+00

     total cpu time spent up to now is       16.7 secs

     total energy              =     -24.84625433 Ry
     estimated scf accuracy    <       0.00002109 Ry

     iteration #  6     ecut=    35.00 Ry     beta= 0.70
     Davidson diagonalization with overlap
     ethr =  2.11E-07,  avg # of iterations =  1.6

     negative rho (up, down):  9.111E-05 0.000E+00

     total cpu time spent up to now is       18.9 secs

     End of self-consistent calculation

          k = 0.0000 0.0000 0.0000 (  3763 PWs)   bands (ev):

   -15.1237  -9.6171  -5.2933  -1.5127  -1.4971   1.1540   2.3603   2.5277
     2.5431

          k =-0.1250 0.0722 0.0000 (  3746 PWs)   bands (ev):

   -14.8698  -9.4569  -5.2536  -3.0704  -2.0602   1.4188   2.2060   2.4726
     3.0937

          k =-0.2500 0.1443 0.0000 (  3758 PWs)   bands (ev):

   -14.1211  -9.0853  -5.6506  -5.0354  -2.9315   0.7719   2.6237   2.9686
     3.5642

          k =-0.3750 0.2165 0.0000 (  3792 PWs)   bands (ev):

   -12.9417  -9.2936  -7.0306  -5.2783  -3.5392   0.2423   1.6372   3.5063
     4.4829

          k = 0.5000-0.2887 0.0000 (  3784 PWs)   bands (ev):

   -11.9018 -10.3331  -7.0072  -5.5015  -3.7500   0.0602   1.2217   3.4165
     5.4363

          k = 0.0000 0.1443 0.0000 (  3746 PWs)   bands (ev):

   -14.8697  -9.4569  -5.2538  -3.0777  -2.0515   1.4231   2.2072   2.4732
     3.0927

          k =-0.1250 0.2165 0.0000 (  3756 PWs)   bands (ev):

   -14.3678  -9.1825  -5.2418  -4.5960  -3.2581   2.0399   2.4494   2.9811
     3.0275

          k =-0.2500 0.2887 0.0000 (  3782 PWs)   bands (ev):

   -13.3949  -8.9676  -6.4133  -5.3299  -4.2920   1.6932   2.4188   3.2730
     3.8224

          k = 0.6250-0.2165 0.0000 (  3786 PWs)   bands (ev):

   -12.1052  -9.8670  -6.9572  -5.5066  -4.8265   1.3472   1.6575   3.4891
     4.3537

          k = 0.5000-0.1443 0.0000 (  3786 PWs)   bands (ev):

   -12.1059  -9.8657  -6.9579  -5.5053  -4.8279   1.3489   1.6562   3.4868
     4.3539

          k = 0.3750-0.0722 0.0000 (  3782 PWs)   bands (ev):

   -13.3954  -8.9667  -6.4119  -5.3284  -4.2960   1.6955   2.4205   3.2662
     3.8209

          k = 0.2500 0.0000 0.0000 (  3756 PWs)   bands (ev):

   -14.3681  -9.1824  -5.2414  -4.5883  -3.2675   2.0415   2.4442   2.9777
     3.0285

          k = 0.0000 0.2887 0.0000 (  3758 PWs)   bands (ev):

   -14.1206  -9.0856  -5.6532  -5.0381  -2.9254   0.7774   2.6231   2.9668
     3.5644

          k =-0.1250 0.3609 0.0000 (  3782 PWs)   bands (ev):

   -13.3944  -8.9685  -6.4146  -5.3307  -4.2896   1.6991   2.4197   3.2679
     3.8223

          k = 0.7500-0.1443 0.0000 (  3794 PWs)   bands (ev):

   -12.2543  -9.3933  -6.4778  -6.4259  -5.2072   1.7954   2.5911   3.6264
     4.4112

          k = 0.6250-0.0722 0.0000 (  3778 PWs)   bands (ev):

   -11.1855 -10.2732  -7.0735  -6.0109  -5.6702   1.4235   3.0438   3.1436
     4.8685

          k = 0.5000 0.0000 0.0000 (  3794 PWs)   bands (ev):

   -12.2561  -9.3888  -6.4815  -6.4250  -5.2068   1.7942   2.5927   3.6241
     4.4032

          k = 0.0000 0.4330 0.0000 (  3792 PWs)   bands (ev):

   -12.9399  -9.2974  -7.0297  -5.2819  -3.5342   0.2466   1.6391   3.5017
     4.4828

          k = 0.8750-0.0722 0.0000 (  3786 PWs)   bands (ev):

   -12.1020  -9.8729  -6.9543  -5.5104  -4.8235   1.3524   1.6604   3.4834
     4.3537

          k = 0.7500 0.0000 0.0000 (  3778 PWs)   bands (ev):

   -11.1792 -10.2819  -7.0706  -6.0074  -5.6745   1.4256   3.0425   3.1450
     4.8706

          k = 0.0000-0.5774 0.0000 (  3784 PWs)   bands (ev):

   -11.8953 -10.3427  -7.0029  -5.5075  -3.7452   0.0636   1.2263   3.4095
     5.4380

     the Fermi energy is    -0.8854 ev

!    total energy              =     -24.84625804 Ry
     estimated scf accuracy    <       0.00000027 Ry
     smearing contrib. (-TS)   =       0.00000000 Ry
     internal energy E=F+TS    =     -24.84625804 Ry

     The total energy is F=E-TS. E is the sum of the following terms:
     one-electron contribution =    -125.03572406 Ry
     hartree contribution      =      64.38196007 Ry
     xc contribution           =     -14.38926014 Ry
     ewald contribution        =      50.19702204 Ry
     one-center paw contrib.   =      -0.00025594 Ry

     convergence has been achieved in   6 iterations

     negative rho (up, down):  9.111E-05 0.000E+00

     Forces acting on atoms (cartesian axes, Ry/au):

     atom    1 type  2   force =     0.00000000   -0.00004221   -0.25359299
     atom    2 type  1   force =     0.00000000   -0.00296587    0.01635905
     atom    3 type  1   force =     0.00000000    0.00295965   -0.01643657
     atom    4 type  2   force =     0.00000000    0.00004843    0.25367052

     Total force =     0.359463     Total SCF correction =     0.000329

     BFGS Geometry Optimization

     number of scf cycles    =   1
     number of bfgs steps    =   0

     energy   new            =     -24.8462580363 Ry

     new trust radius        =       0.2536705197 bohr

     The maximum number of steps has been reached.

     End of BFGS Geometry Optimization

ATOMIC_POSITIONS (crystal)
H            -0.0000039078       -0.0000039078       -0.0079053934
Si           -0.0002745945       -0.0002745945        0.0755099697
Si            0.3332740187        0.3332740187        0.1104876137
H             0.3330044836        0.3330044836        0.1939078100



     Writing output data file /home/jesus/Documentos/Nanociencia_DFT/silicano.save/
     NEW-OLD atomic charge density approx. for the potential

     negative rho (up, down):  7.874E-05 0.000E+00

     Writing output data file /home/jesus/Documentos/Nanociencia_DFT/silicano.save/
 
     init_run     :      1.48s CPU      1.66s WALL (       1 calls)
     electrons    :     15.25s CPU     16.40s WALL (       1 calls)
     update_pot   :      0.36s CPU      0.36s WALL (       1 calls)
     forces       :      0.60s CPU      0.67s WALL (       1 calls)

     Called by init_run:
     wfcinit      :      0.69s CPU      0.69s WALL (       1 calls)
     potinit      :      0.19s CPU      0.20s WALL (       1 calls)
     hinit0       :      0.42s CPU      0.44s WALL (       1 calls)

     Called by electrons:
     c_bands      :     11.14s CPU     11.20s WALL (       6 calls)
     sum_band     :      2.71s CPU      3.23s WALL (       6 calls)
     v_of_rho     :      0.55s CPU      0.58s WALL (       8 calls)
     newd         :      1.16s CPU      1.93s WALL (       8 calls)
     PAW_pot      :      0.01s CPU      0.01s WALL (       9 calls)
     mix_rho      :      0.06s CPU      0.06s WALL (       6 calls)

     Called by c_bands:
     init_us_2    :      0.45s CPU      0.46s WALL (     315 calls)
     cegterg      :      9.51s CPU      9.56s WALL (     126 calls)

     Called by *egterg:
     cdiaghg      :      0.12s CPU      0.12s WALL (     720 calls)
     h_psi        :      8.79s CPU      8.83s WALL (     741 calls)
     s_psi        :      0.33s CPU      0.33s WALL (     741 calls)
     g_psi        :      0.03s CPU      0.04s WALL (     594 calls)

     Called by h_psi:
     h_psi:calbec :      0.38s CPU      0.39s WALL (     741 calls)
     vloc_psi     :      8.00s CPU      8.04s WALL (     741 calls)
     add_vuspsi   :      0.35s CPU      0.35s WALL (     741 calls)

     General routines
     calbec       :      0.55s CPU      0.55s WALL (     972 calls)
     fft          :      0.23s CPU      0.25s WALL (     114 calls)
     ffts         :      0.01s CPU      0.01s WALL (      14 calls)
     fftw         :      7.91s CPU      7.95s WALL (    8474 calls)
     interpolate  :      0.03s CPU      0.03s WALL (       8 calls)
     davcio       :      0.00s CPU      0.00s WALL (      21 calls)
 
     Parallel routines
 
     PWSCF        :     18.74s CPU     20.26s WALL

 
   This run was terminated on:  17: 6:12  31Mar2021            

=------------------------------------------------------------------------------=
   JOB DONE.
=------------------------------------------------------------------------------=
