
     Program PWSCF v.6.6 starts on 31Mar2021 at 17:18:22 

     This program is part of the open-source Quantum ESPRESSO suite
     for quantum simulation of materials; please cite
         "P. Giannozzi et al., J. Phys.:Condens. Matter 21 395502 (2009);
         "P. Giannozzi et al., J. Phys.:Condens. Matter 29 465901 (2017);
          URL http://www.quantum-espresso.org", 
     in publications or presentations arising from this work. More details at
     http://www.quantum-espresso.org/quote

     Parallel version (MPI), running on     1 processors

     MPI processes distributed on     1 nodes
     Fft bands division:     nmany     =       1
     Waiting for input...
     Reading input from standard input
Warning: card &CELL ignored
Warning: card   CELL_DYNAMICS='BFGS', ignored
Warning: card   CELL_DOFREE='ALL', ignored
Warning: card / ignored

     Current dimensions of program PWSCF are:
     Max number of different atomic species (ntypx) = 10
     Max number of k-points (npk) =  40000
     Max angular momentum in pseudopotentials (lmaxx) =  3

     File /home/jesus/Documentos/Nanociencia_DFT/silicano.update deleted, as requested

     File /home/jesus/Documentos/Nanociencia_DFT/silicano.bfgs deleted, as requested
     file H.pbe-kjpaw_psl.1.0.0.UPF: wavefunction(s)  1S renormalized

     Subspace diagonalization in iterative solution of the eigenvalue problem:
     a serial algorithm will be used

     Message from routine setup:
     using ibrav=0 with symmetry is DISCOURAGED, use correct ibrav instead
 
     G-vector sticks info
     --------------------
     sticks:   dense  smooth     PW     G-vecs:    dense   smooth      PW
     Sum        1285     859    253               193109   105009   17369
 


     bravais-lattice index     =            0
     lattice parameter (alat)  =       9.4486  a.u.
     unit-cell volume          =    3757.7291 (a.u.)^3
     number of atoms/cell      =            4
     number of atomic types    =            2
     number of electrons       =        10.00
     number of Kohn-Sham states=            9
     kinetic-energy cutoff     =      35.0000  Ry
     charge density cutoff     =     210.0000  Ry
     convergence threshold     =      1.0E-06
     mixing beta               =       0.7000
     number of iterations used =            8  plain     mixing
     Exchange-correlation= SLA PW PBX PBC
                           (   1   4   3   4   0   0   0)
     nstep                     =            1


     celldm(1)=   9.448631  celldm(2)=   0.000000  celldm(3)=   0.000000
     celldm(4)=   0.000000  celldm(5)=   0.000000  celldm(6)=   0.000000

     crystal axes: (cart. coord. in units of alat)
               a(1) = (   0.500000   0.866000   0.000000 )  
               a(2) = (  -0.500000   0.866000   0.000000 )  
               a(3) = (   0.000000   0.000000   5.144000 )  

     reciprocal axes: (cart. coord. in units 2 pi/alat)
               b(1) = (  1.000000  0.577367  0.000000 )  
               b(2) = ( -1.000000  0.577367  0.000000 )  
               b(3) = (  0.000000  0.000000  0.194401 )  


     PseudoPot. # 1 for Si read from file:
     /home/jesus/Nanociencia_DFT/pseudopotenciales/Si.pbe-n-rrkjus_psl.1.0.0.UPF
     MD5 check sum: fa25574f73a70a4139f2adfbefec430c
     Pseudo is Ultrasoft + core correction, Zval =  4.0
     Generated using "atomic" code by A. Dal Corso v.6.3
     Using radial grid of 1141 points,  6 beta functions with: 
                l(1) =   0
                l(2) =   0
                l(3) =   1
                l(4) =   1
                l(5) =   2
                l(6) =   2
     Q(r) pseudized with 0 coefficients 


     PseudoPot. # 2 for H  read from file:
     /home/jesus/Nanociencia_DFT/pseudopotenciales/H.pbe-kjpaw_psl.1.0.0.UPF
     MD5 check sum: d81a744832360e4a8af0b0b5b123bc2a
     Pseudo is Projector augmented-wave, Zval =  1.0
     Generated using "atomic" code by A. Dal Corso v.6.3MaX
     Shape of augmentation charge: PSQ
     Using radial grid of  929 points,  2 beta functions with: 
                l(1) =   0
                l(2) =   0
     Q(r) pseudized with 0 coefficients 


     atomic species   valence    mass     pseudopotential
        Si             4.00    28.08550     Si( 1.00)
        H              1.00     1.00800     H ( 1.00)

      2 Sym. Ops. (no inversion) found



   Cartesian axes

     site n.     atom                  positions (alat units)
         1           H   tau(   1) = (   0.0000000   0.0000000   0.0000000  )
         2           Si  tau(   2) = (   0.0000000   0.0000000   0.3858000  )
         3           Si  tau(   3) = (   0.0000000   0.5767560   0.5709840  )
         4           H   tau(   4) = (   0.0000000   0.5767560   0.9567840  )

     number of k points=    21  Methfessel-Paxton smearing, width (Ry)=  0.0100
                       cart. coord. in units 2pi/alat
        k(    1) = (   0.0000000   0.0000000   0.0000000), wk =   0.0312500
        k(    2) = (  -0.1250000   0.0721709   0.0000000), wk =   0.1250000
        k(    3) = (  -0.2500000   0.1443418   0.0000000), wk =   0.1250000
        k(    4) = (  -0.3750000   0.2165127   0.0000000), wk =   0.1250000
        k(    5) = (   0.5000000  -0.2886836   0.0000000), wk =   0.0625000
        k(    6) = (   0.0000000   0.1443418   0.0000000), wk =   0.0625000
        k(    7) = (  -0.1250000   0.2165127   0.0000000), wk =   0.1250000
        k(    8) = (  -0.2500000   0.2886836   0.0000000), wk =   0.1250000
        k(    9) = (   0.6250000  -0.2165127   0.0000000), wk =   0.1250000
        k(   10) = (   0.5000000  -0.1443418   0.0000000), wk =   0.1250000
        k(   11) = (   0.3750000  -0.0721709   0.0000000), wk =   0.1250000
        k(   12) = (   0.2500000   0.0000000   0.0000000), wk =   0.0625000
        k(   13) = (   0.0000000   0.2886836   0.0000000), wk =   0.0625000
        k(   14) = (  -0.1250000   0.3608545   0.0000000), wk =   0.1250000
        k(   15) = (   0.7500000  -0.1443418   0.0000000), wk =   0.1250000
        k(   16) = (   0.6250000  -0.0721709   0.0000000), wk =   0.1250000
        k(   17) = (   0.5000000   0.0000000   0.0000000), wk =   0.0625000
        k(   18) = (   0.0000000   0.4330254   0.0000000), wk =   0.0625000
        k(   19) = (   0.8750000  -0.0721709   0.0000000), wk =   0.1250000
        k(   20) = (   0.7500000   0.0000000   0.0000000), wk =   0.0625000
        k(   21) = (   0.0000000  -0.5773672   0.0000000), wk =   0.0312500

     Dense  grid:   193109 G-vectors     FFT dimensions: (  45,  45, 225)

     Smooth grid:   105009 G-vectors     FFT dimensions: (  36,  36, 192)

     Estimated max dynamical RAM per process >     728.18 MB

     Initial potential from superposition of free atoms

     starting charge    9.99886, renormalised to   10.00000

     negative rho (up, down):  1.696E-04 0.000E+00
     Starting wfcs are   10 randomized atomic wfcs
     Checking if some PAW data can be deallocated... 

     total cpu time spent up to now is        5.9 secs

     Self-consistent Calculation

     iteration #  1     ecut=    35.00 Ry     beta= 0.70
     Davidson diagonalization with overlap
     ethr =  1.00E-02,  avg # of iterations =  2.2

     negative rho (up, down):  8.390E-05 0.000E+00

     total cpu time spent up to now is       15.6 secs

     total energy              =     -24.80545699 Ry
     estimated scf accuracy    <       0.11869224 Ry

     iteration #  2     ecut=    35.00 Ry     beta= 0.70
     Davidson diagonalization with overlap
     ethr =  1.19E-03,  avg # of iterations =  2.4

     negative rho (up, down):  1.482E-04 0.000E+00

     total cpu time spent up to now is       25.2 secs

     total energy              =     -24.82866851 Ry
     estimated scf accuracy    <       0.07431922 Ry

     iteration #  3     ecut=    35.00 Ry     beta= 0.70
     Davidson diagonalization with overlap
     ethr =  7.43E-04,  avg # of iterations =  1.4

     negative rho (up, down):  1.398E-04 0.000E+00

     total cpu time spent up to now is       33.7 secs

     total energy              =     -24.84319092 Ry
     estimated scf accuracy    <       0.00180754 Ry

     iteration #  4     ecut=    35.00 Ry     beta= 0.70
     Davidson diagonalization with overlap
     ethr =  1.81E-05,  avg # of iterations =  5.0

     negative rho (up, down):  1.340E-04 0.000E+00

     total cpu time spent up to now is       45.8 secs

     total energy              =     -24.84367374 Ry
     estimated scf accuracy    <       0.00081507 Ry

     iteration #  5     ecut=    35.00 Ry     beta= 0.70
     Davidson diagonalization with overlap
     ethr =  8.15E-06,  avg # of iterations =  2.0

     negative rho (up, down):  1.377E-04 0.000E+00

     total cpu time spent up to now is       54.6 secs

     total energy              =     -24.84378942 Ry
     estimated scf accuracy    <       0.00001304 Ry

     iteration #  6     ecut=    35.00 Ry     beta= 0.70
     Davidson diagonalization with overlap
     ethr =  1.30E-07,  avg # of iterations =  4.0

     negative rho (up, down):  1.379E-04 0.000E+00

     total cpu time spent up to now is       65.0 secs

     total energy              =     -24.84379799 Ry
     estimated scf accuracy    <       0.00000436 Ry

     iteration #  7     ecut=    35.00 Ry     beta= 0.70
     Davidson diagonalization with overlap
     ethr =  4.36E-08,  avg # of iterations =  1.4

     negative rho (up, down):  1.380E-04 0.000E+00

     total cpu time spent up to now is       73.4 secs

     total energy              =     -24.84379821 Ry
     estimated scf accuracy    <       0.00000100 Ry

     iteration #  8     ecut=    35.00 Ry     beta= 0.70
     Davidson diagonalization with overlap
     ethr =  1.00E-08,  avg # of iterations =  1.9

     negative rho (up, down):  1.382E-04 0.000E+00

     total cpu time spent up to now is       82.0 secs

     End of self-consistent calculation

          k = 0.0000 0.0000 0.0000 ( 13141 PWs)   bands (ev):

   -12.2644  -9.3906  -6.3079  -5.2686  -4.6919  -4.6818  -1.9040  -1.8902
    -1.5332

          k =-0.1250 0.0722 0.0000 ( 13109 PWs)   bands (ev):

   -12.1828  -9.4841  -6.3146  -5.8108  -4.8129  -4.1026  -1.9613  -1.6564
    -1.4628

          k =-0.2500 0.1443 0.0000 ( 13107 PWs)   bands (ev):

   -11.9486  -9.7711  -6.3575  -6.3023  -5.0577  -3.6492  -1.8858  -1.2213
    -1.1351

          k =-0.3750 0.2165 0.0000 ( 13152 PWs)   bands (ev):

   -11.6099 -10.1925  -6.5624  -6.3755  -5.2557  -3.5943  -1.7145  -1.0253
    -0.6783

          k = 0.5000-0.2887 0.0000 ( 13128 PWs)   bands (ev):

   -11.3813 -10.4623  -6.6147  -6.4020  -5.3284  -3.6130  -1.6544  -1.0374
    -0.5133

          k = 0.0000 0.1443 0.0000 ( 13109 PWs)   bands (ev):

   -12.1826  -9.4846  -6.3147  -5.8137  -4.8063  -4.1056  -1.9529  -1.6655
    -1.4623

          k =-0.1250 0.2165 0.0000 ( 13097 PWs)   bands (ev):

   -12.0239  -9.6766  -6.3319  -6.1993  -5.0678  -3.5846  -2.0104  -1.4468
    -1.1234

          k =-0.2500 0.2887 0.0000 ( 13142 PWs)   bands (ev):

   -11.7292 -10.0418  -6.4739  -6.3675  -5.3862  -3.2243  -1.8837  -1.2063
    -0.7040

          k = 0.6250-0.2165 0.0000 ( 13167 PWs)   bands (ev):

   -11.3900 -10.4445  -6.5754  -6.4061  -5.5679  -3.1750  -1.7168  -0.9768
    -0.6558

          k = 0.5000-0.1443 0.0000 ( 13167 PWs)   bands (ev):

   -11.3908 -10.4434  -6.5752  -6.4058  -5.5691  -3.1742  -1.7182  -0.9737
    -0.6593

          k = 0.3750-0.0722 0.0000 ( 13142 PWs)   bands (ev):

   -11.7302 -10.0401  -6.4728  -6.3669  -5.3900  -3.2215  -1.8893  -1.2031
    -0.7062

          k = 0.2500 0.0000 0.0000 ( 13097 PWs)   bands (ev):

   -12.0245  -9.6753  -6.3316  -6.1963  -5.0742  -3.5815  -2.0193  -1.4425
    -1.1206

          k = 0.0000 0.2887 0.0000 ( 13107 PWs)   bands (ev):

   -11.9477  -9.7731  -6.3594  -6.3035  -5.0528  -3.6475  -1.8820  -1.2195
    -1.1417

          k =-0.1250 0.3609 0.0000 ( 13142 PWs)   bands (ev):

   -11.7283 -10.0435  -6.4755  -6.3674  -5.3844  -3.2213  -1.8837  -1.2059
    -0.7062

          k = 0.7500-0.1443 0.0000 ( 13201 PWs)   bands (ev):

   -11.3973 -10.4285  -6.5149  -6.4217  -5.7692  -2.6346  -1.9134  -1.0283
    -0.5563

          k = 0.6250-0.0722 0.0000 ( 13163 PWs)   bands (ev):

   -11.1206 -10.7277  -6.5145  -6.4438  -5.9202  -2.4394  -1.8840  -0.7979
    -0.6669

          k = 0.5000 0.0000 0.0000 ( 13201 PWs)   bands (ev):

   -11.3999 -10.4247  -6.5137  -6.4209  -5.7729  -2.6322  -1.9190  -1.0239
    -0.5614

          k = 0.0000 0.4330 0.0000 ( 13152 PWs)   bands (ev):

   -11.6071 -10.1971  -6.5644  -6.3760  -5.2517  -3.5899  -1.7131  -1.0229
    -0.6826

          k = 0.8750-0.0722 0.0000 ( 13167 PWs)   bands (ev):

   -11.3862 -10.4499  -6.5769  -6.4065  -5.5648  -3.1712  -1.7161  -0.9733
    -0.6603

          k = 0.7500 0.0000 0.0000 ( 13163 PWs)   bands (ev):

   -11.1154 -10.7336  -6.5156  -6.4440  -5.9181  -2.4390  -1.8822  -0.7999
    -0.6643

          k = 0.0000-0.5774 0.0000 ( 13128 PWs)   bands (ev):

   -11.3759 -10.4700  -6.6162  -6.4028  -5.3247  -3.6081  -1.6534  -1.0352
    -0.5167

     the Fermi energy is    -4.6909 ev

!    total energy              =     -24.84379828 Ry
     estimated scf accuracy    <       0.00000010 Ry
     smearing contrib. (-TS)   =      -0.00001650 Ry
     internal energy E=F+TS    =     -24.84378178 Ry

     The total energy is F=E-TS. E is the sum of the following terms:
     one-electron contribution =     -91.75547607 Ry
     hartree contribution      =      46.64558208 Ry
     xc contribution           =     -12.86363939 Ry
     ewald contribution        =      33.13003453 Ry
     one-center paw contrib.   =      -0.00028293 Ry

     convergence has been achieved in   8 iterations

     negative rho (up, down):  1.382E-04 0.000E+00

     Forces acting on atoms (cartesian axes, Ry/au):

     atom    1 type  2   force =     0.00000000    0.00002378    0.10301816
     atom    2 type  1   force =     0.00000000    0.00006374   -0.04172397
     atom    3 type  1   force =     0.00000000   -0.00006193    0.04179809
     atom    4 type  2   force =     0.00000000   -0.00002559   -0.10309229

     Total force =     0.157254     Total SCF correction =     0.000184

     BFGS Geometry Optimization

     number of scf cycles    =   1
     number of bfgs steps    =   0

     energy   new            =     -24.8437982772 Ry

     new trust radius        =       0.1030922896 bohr

     The maximum number of steps has been reached.

     End of BFGS Geometry Optimization

ATOMIC_POSITIONS (crystal)
H             0.0000014532        0.0000014532        0.0021195515
Si            0.0000038948        0.0000038948        0.0741415485
Si            0.3329962154        0.3329962154        0.1118599766
H             0.3329984365        0.3329984365        0.1838789235



     Writing output data file /home/jesus/Documentos/Nanociencia_DFT/silicano.save/
     NEW-OLD atomic charge density approx. for the potential

     negative rho (up, down):  1.444E-04 0.000E+00

     Writing output data file /home/jesus/Documentos/Nanociencia_DFT/silicano.save/
 
     init_run     :      4.51s CPU      4.96s WALL (       1 calls)
     electrons    :     71.32s CPU     76.14s WALL (       1 calls)
     update_pot   :      1.28s CPU      1.28s WALL (       1 calls)
     forces       :      2.04s CPU      2.40s WALL (       1 calls)

     Called by init_run:
     wfcinit      :      2.42s CPU      2.45s WALL (       1 calls)
     potinit      :      0.62s CPU      0.66s WALL (       1 calls)
     hinit0       :      0.79s CPU      0.84s WALL (       1 calls)

     Called by electrons:
     c_bands      :     48.78s CPU     49.06s WALL (       8 calls)
     sum_band     :     15.61s CPU     17.74s WALL (       8 calls)
     v_of_rho     :      2.21s CPU      2.35s WALL (      10 calls)
     newd         :      5.76s CPU      8.64s WALL (      10 calls)
     PAW_pot      :      0.01s CPU      0.01s WALL (      11 calls)
     mix_rho      :      0.34s CPU      0.34s WALL (       8 calls)

     Called by c_bands:
     init_us_2    :      2.06s CPU      2.08s WALL (     399 calls)
     cegterg      :     41.17s CPU     41.44s WALL (     168 calls)

     Called by *egterg:
     cdiaghg      :      0.09s CPU      0.10s WALL (     595 calls)
     h_psi        :     38.95s CPU     39.20s WALL (     616 calls)
     s_psi        :      1.24s CPU      1.25s WALL (     616 calls)
     g_psi        :      0.13s CPU      0.13s WALL (     427 calls)

     Called by h_psi:
     h_psi:calbec :      1.25s CPU      1.26s WALL (     616 calls)
     vloc_psi     :     36.25s CPU     36.48s WALL (     616 calls)
     add_vuspsi   :      1.23s CPU      1.24s WALL (     616 calls)

     General routines
     calbec       :      1.90s CPU      1.91s WALL (     889 calls)
     fft          :      1.09s CPU      1.11s WALL (     140 calls)
     ffts         :      0.07s CPU      0.07s WALL (      18 calls)
     fftw         :     35.00s CPU     35.22s WALL (    9500 calls)
     interpolate  :      0.17s CPU      0.18s WALL (      10 calls)
     davcio       :      0.02s CPU      0.19s WALL (      21 calls)
 
     Parallel routines
 
     PWSCF        :   1m20.89s CPU   1m27.09s WALL

 
   This run was terminated on:  17:19:49  31Mar2021            

=------------------------------------------------------------------------------=
   JOB DONE.
=------------------------------------------------------------------------------=
