
     Program PWSCF v.6.6 starts on  1Apr2021 at 22:57:26 

     This program is part of the open-source Quantum ESPRESSO suite
     for quantum simulation of materials; please cite
         "P. Giannozzi et al., J. Phys.:Condens. Matter 21 395502 (2009);
         "P. Giannozzi et al., J. Phys.:Condens. Matter 29 465901 (2017);
          URL http://www.quantum-espresso.org", 
     in publications or presentations arising from this work. More details at
     http://www.quantum-espresso.org/quote

     Parallel version (MPI), running on     1 processors

     MPI processes distributed on     1 nodes
     Fft bands division:     nmany     =       1
     Waiting for input...
     Reading input from standard input
Warning: card &CELL ignored
Warning: card   CELL_DYNAMICS='BFGS', ignored
Warning: card   CELL_DOFREE='ALL', ignored
Warning: card / ignored

     Current dimensions of program PWSCF are:
     Max number of different atomic species (ntypx) = 10
     Max number of k-points (npk) =  40000
     Max angular momentum in pseudopotentials (lmaxx) =  3

     File /home/jesus/Documentos/Nanociencia_DFT/silicano.update deleted, as requested

     File /home/jesus/Documentos/Nanociencia_DFT/silicano.bfgs deleted, as requested

     Subspace diagonalization in iterative solution of the eigenvalue problem:
     a serial algorithm will be used

     Message from routine setup:
     using ibrav=0 with symmetry is DISCOURAGED, use correct ibrav instead
 
     G-vector sticks info
     --------------------
     sticks:   dense  smooth     PW     G-vecs:    dense   smooth      PW
     Sum         499     337    109                46153    24941    4853
 


     bravais-lattice index     =            0
     lattice parameter (alat)  =       5.8582  a.u.
     unit-cell volume          =     895.5721 (a.u.)^3
     number of atoms/cell      =            4
     number of atomic types    =            2
     number of electrons       =        10.00
     number of Kohn-Sham states=            9
     kinetic-energy cutoff     =      35.0000  Ry
     charge density cutoff     =     210.0000  Ry
     convergence threshold     =      1.0E-06
     mixing beta               =       0.7000
     number of iterations used =            8  plain     mixing
     Exchange-correlation= PBE
                           (   1   4   3   4   0   0   0)
     nstep                     =            1


     celldm(1)=   5.858151  celldm(2)=   0.000000  celldm(3)=   0.000000
     celldm(4)=   0.000000  celldm(5)=   0.000000  celldm(6)=   0.000000

     crystal axes: (cart. coord. in units of alat)
               a(1) = (   0.500000   0.866000   0.000000 )  
               a(2) = (  -0.500000   0.866000   0.000000 )  
               a(3) = (   0.000000   0.000000   5.144000 )  

     reciprocal axes: (cart. coord. in units 2 pi/alat)
               b(1) = (  1.000000  0.577367  0.000000 )  
               b(2) = ( -1.000000  0.577367  0.000000 )  
               b(3) = (  0.000000  0.000000  0.194401 )  


     PseudoPot. # 1 for Si read from file:
     /home/jesus/Nanociencia_DFT/pseudopotenciales/Si.pbe-n-rrkjus_psl.1.0.0.UPF
     MD5 check sum: fa25574f73a70a4139f2adfbefec430c
     Pseudo is Ultrasoft + core correction, Zval =  4.0
     Generated using "atomic" code by A. Dal Corso v.6.3
     Using radial grid of 1141 points,  6 beta functions with: 
                l(1) =   0
                l(2) =   0
                l(3) =   1
                l(4) =   1
                l(5) =   2
                l(6) =   2
     Q(r) pseudized with 0 coefficients 


     PseudoPot. # 2 for H  read from file:
     /home/jesus/Nanociencia_DFT/pseudopotenciales/H.pbe-rrkjus_psl.1.0.0.UPF
     MD5 check sum: 3f4114867bd07edc7f1424d066fc1888
     Pseudo is Ultrasoft, Zval =  1.0
     Generated using "atomic" code by A. Dal Corso v.6.3MaX
     Using radial grid of  929 points,  2 beta functions with: 
                l(1) =   0
                l(2) =   0
     Q(r) pseudized with 0 coefficients 


     atomic species   valence    mass     pseudopotential
        Si             4.00    28.08550     Si( 1.00)
        H              1.00     1.00800     H ( 1.00)

      2 Sym. Ops. (no inversion) found



   Cartesian axes

     site n.     atom                  positions (alat units)
         1           H   tau(   1) = (   0.0000000   0.0000000   0.0000000  )
         2           Si  tau(   2) = (   0.0000000   0.0000000   0.3858000  )
         3           Si  tau(   3) = (   0.0000000   0.5767560   0.5709840  )
         4           H   tau(   4) = (   0.0000000   0.5767560   0.9567840  )

     number of k points=    21  Methfessel-Paxton smearing, width (Ry)=  0.0100
                       cart. coord. in units 2pi/alat
        k(    1) = (   0.0000000   0.0000000   0.0000000), wk =   0.0312500
        k(    2) = (  -0.1250000   0.0721709   0.0000000), wk =   0.1250000
        k(    3) = (  -0.2500000   0.1443418   0.0000000), wk =   0.1250000
        k(    4) = (  -0.3750000   0.2165127   0.0000000), wk =   0.1250000
        k(    5) = (   0.5000000  -0.2886836   0.0000000), wk =   0.0625000
        k(    6) = (   0.0000000   0.1443418   0.0000000), wk =   0.0625000
        k(    7) = (  -0.1250000   0.2165127   0.0000000), wk =   0.1250000
        k(    8) = (  -0.2500000   0.2886836   0.0000000), wk =   0.1250000
        k(    9) = (   0.6250000  -0.2165127   0.0000000), wk =   0.1250000
        k(   10) = (   0.5000000  -0.1443418   0.0000000), wk =   0.1250000
        k(   11) = (   0.3750000  -0.0721709   0.0000000), wk =   0.1250000
        k(   12) = (   0.2500000   0.0000000   0.0000000), wk =   0.0625000
        k(   13) = (   0.0000000   0.2886836   0.0000000), wk =   0.0625000
        k(   14) = (  -0.1250000   0.3608545   0.0000000), wk =   0.1250000
        k(   15) = (   0.7500000  -0.1443418   0.0000000), wk =   0.1250000
        k(   16) = (   0.6250000  -0.0721709   0.0000000), wk =   0.1250000
        k(   17) = (   0.5000000   0.0000000   0.0000000), wk =   0.0625000
        k(   18) = (   0.0000000   0.4330254   0.0000000), wk =   0.0625000
        k(   19) = (   0.8750000  -0.0721709   0.0000000), wk =   0.1250000
        k(   20) = (   0.7500000   0.0000000   0.0000000), wk =   0.0625000
        k(   21) = (   0.0000000  -0.5773672   0.0000000), wk =   0.0312500

     Dense  grid:    46153 G-vectors     FFT dimensions: (  27,  27, 144)

     Smooth grid:    24941 G-vectors     FFT dimensions: (  24,  24, 120)

     Estimated max dynamical RAM per process >     175.51 MB

     Initial potential from superposition of free atoms

     starting charge    9.99886, renormalised to   10.00000

     negative rho (up, down):  5.478E-05 0.000E+00
     Starting wfcs are   10 randomized atomic wfcs

     total cpu time spent up to now is        2.2 secs

     Self-consistent Calculation

     iteration #  1     ecut=    35.00 Ry     beta= 0.70
     Davidson diagonalization with overlap
     ethr =  1.00E-02,  avg # of iterations =  5.6

     negative rho (up, down):  4.310E-05 0.000E+00

     total cpu time spent up to now is        4.6 secs

     total energy              =     -24.45282536 Ry
     estimated scf accuracy    <       0.39619013 Ry

     iteration #  2     ecut=    35.00 Ry     beta= 0.70
     Davidson diagonalization with overlap
     ethr =  3.96E-03,  avg # of iterations =  2.0

     negative rho (up, down):  6.896E-05 0.000E+00

     total cpu time spent up to now is        6.4 secs

     total energy              =     -24.49482631 Ry
     estimated scf accuracy    <       0.00878016 Ry

     iteration #  3     ecut=    35.00 Ry     beta= 0.70
     Davidson diagonalization with overlap
     ethr =  8.78E-05,  avg # of iterations =  8.0

     negative rho (up, down):  8.250E-05 0.000E+00

     total cpu time spent up to now is        9.9 secs

     total energy              =     -24.49677333 Ry
     estimated scf accuracy    <       0.00052233 Ry

     iteration #  4     ecut=    35.00 Ry     beta= 0.70
     Davidson diagonalization with overlap
     c_bands:  1 eigenvalues not converged
     ethr =  5.22E-06,  avg # of iterations =  6.9

     negative rho (up, down):  8.866E-05 0.000E+00

     total cpu time spent up to now is       12.4 secs

     total energy              =     -24.49686732 Ry
     estimated scf accuracy    <       0.00002817 Ry

     iteration #  5     ecut=    35.00 Ry     beta= 0.70
     Davidson diagonalization with overlap
     ethr =  2.82E-07,  avg # of iterations =  3.3

     negative rho (up, down):  8.903E-05 0.000E+00

     total cpu time spent up to now is       14.4 secs

     total energy              =     -24.49686822 Ry
     estimated scf accuracy    <       0.00003012 Ry

     iteration #  6     ecut=    35.00 Ry     beta= 0.70
     Davidson diagonalization with overlap
     ethr =  2.82E-07,  avg # of iterations =  1.6

     negative rho (up, down):  8.939E-05 0.000E+00

     total cpu time spent up to now is       16.0 secs

     End of self-consistent calculation

          k = 0.0000 0.0000 0.0000 (  3189 PWs)   bands (ev):

   -15.6985  -9.8619  -4.9916  -0.3965  -0.3814   1.8220   2.6280   3.1246
     3.4238

          k =-0.1250 0.0722 0.0000 (  3173 PWs)   bands (ev):

   -15.4054  -9.6529  -4.9249  -2.2108  -1.0863   2.1177   2.8318   3.0585
     3.9608

          k =-0.2500 0.1443 0.0000 (  3144 PWs)   bands (ev):

   -14.5387  -9.1156  -5.2934  -4.5380  -2.1098   1.4658   3.2345   3.6615
     4.1936

          k =-0.3750 0.2165 0.0000 (  3122 PWs)   bands (ev):

   -13.1569  -9.0858  -7.0164  -4.8410  -2.8013   0.8109   2.0586   4.4894
     5.3017

          k = 0.5000-0.2887 0.0000 (  3088 PWs)   bands (ev):

   -11.8494 -10.3804  -6.9119  -5.1424  -3.0388   0.5405   1.6383   4.4015
     6.4730

          k = 0.0000 0.1443 0.0000 (  3173 PWs)   bands (ev):

   -15.4053  -9.6528  -4.9250  -2.2175  -1.0784   2.1215   2.8323   3.0605
     3.9589

          k =-0.1250 0.2165 0.0000 (  3153 PWs)   bands (ev):

   -14.8250  -9.2723  -4.8802  -3.9216  -2.5922   2.7838   3.2576   3.7731
     3.7987

          k =-0.2500 0.2887 0.0000 (  3135 PWs)   bands (ev):

   -13.6937  -8.8052  -6.2010  -4.9190  -3.7652   2.4596   2.9612   4.2076
     4.5962

          k = 0.6250-0.2165 0.0000 (  3113 PWs)   bands (ev):

   -12.1515  -9.7232  -6.8983  -5.1312  -4.3871   1.8182   2.2921   4.4771
     5.3166

          k = 0.5000-0.1443 0.0000 (  3113 PWs)   bands (ev):

   -12.1520  -9.7221  -6.8990  -5.1303  -4.3877   1.8185   2.2923   4.4743
     5.3167

          k = 0.3750-0.0722 0.0000 (  3135 PWs)   bands (ev):

   -13.6941  -8.8047  -6.1999  -4.9179  -3.7678   2.4614   2.9629   4.2012
     4.5948

          k = 0.2500 0.0000 0.0000 (  3153 PWs)   bands (ev):

   -14.8252  -9.2724  -4.8800  -3.9143  -2.6007   2.7844   3.2566   3.7740
     3.7918

          k = 0.0000 0.2887 0.0000 (  3144 PWs)   bands (ev):

   -14.5384  -9.1156  -5.2944  -4.5417  -2.1043   1.4710   3.2333   3.6601
     4.1937

          k =-0.1250 0.3609 0.0000 (  3135 PWs)   bands (ev):

   -13.6933  -8.8057  -6.2016  -4.9206  -3.7629   2.4649   2.9621   4.2037
     4.5955

          k = 0.7500-0.1443 0.0000 (  3124 PWs)   bands (ev):

   -12.3525  -9.0508  -6.4572  -6.2516  -4.7564   2.2441   3.2121   4.4600
     5.5876

          k = 0.6250-0.0722 0.0000 (  3126 PWs)   bands (ev):

   -11.0366 -10.0873  -7.1668  -5.7540  -5.3065   1.7513   3.7862   3.8819
     6.1282

          k = 0.5000 0.0000 0.0000 (  3124 PWs)   bands (ev):

   -12.3539  -9.0469  -6.4616  -6.2510  -4.7546   2.2418   3.2138   4.4582
     5.5801

          k = 0.0000 0.4330 0.0000 (  3122 PWs)   bands (ev):

   -13.1556  -9.0887  -7.0146  -4.8455  -2.7967   0.8144   2.0611   4.4850
     5.3021

          k = 0.8750-0.0722 0.0000 (  3113 PWs)   bands (ev):

   -12.1489  -9.7281  -6.8945  -5.1361  -4.3844   1.8232   2.2951   4.4723
     5.3154

          k = 0.7500 0.0000 0.0000 (  3126 PWs)   bands (ev):

   -11.0307 -10.0957  -7.1634  -5.7500  -5.3121   1.7540   3.7845   3.8834
     6.1300

          k = 0.0000-0.5774 0.0000 (  3088 PWs)   bands (ev):

   -11.8433 -10.3890  -6.9065  -5.1499  -3.0344   0.5428   1.6439   4.3941
     6.4751

     the Fermi energy is     0.4270 ev

!    total energy              =     -24.49687349 Ry
     estimated scf accuracy    <       0.00000024 Ry
     smearing contrib. (-TS)   =       0.00002814 Ry
     internal energy E=F+TS    =     -24.49690163 Ry

     The total energy is F=E-TS. E is the sum of the following terms:
     one-electron contribution =    -130.71478867 Ry
     hartree contribution      =      67.49795091 Ry
     xc contribution           =     -14.71560346 Ry
     ewald contribution        =      53.43553959 Ry

     convergence has been achieved in   6 iterations

     negative rho (up, down):  8.939E-05 0.000E+00

     Forces acting on atoms (cartesian axes, Ry/au):

     atom    1 type  2   force =     0.00000000   -0.00005159   -0.40944824
     atom    2 type  1   force =     0.00000000   -0.00400227    0.00274463
     atom    3 type  1   force =     0.00000000    0.00400217   -0.00277556
     atom    4 type  2   force =     0.00000000    0.00005169    0.40947917

     Total force =     0.579110     Total SCF correction =     0.000317

     BFGS Geometry Optimization

     number of scf cycles    =   1
     number of bfgs steps    =   0

     energy   new            =     -24.4968734902 Ry

     new trust radius        =       0.4094791709 bohr

     The maximum number of steps has been reached.

     End of BFGS Geometry Optimization

ATOMIC_POSITIONS (crystal)
H            -0.0000050846       -0.0000050846       -0.0135874352
Si           -0.0003944559       -0.0003944559        0.0750910798
Si            0.3333944460        0.3333944460        0.1109078938
H             0.3330050945        0.3330050945        0.1995884616



     Writing output data file /home/jesus/Documentos/Nanociencia_DFT/silicano.save/
     NEW-OLD atomic charge density approx. for the potential

     negative rho (up, down):  7.099E-05 0.000E+00

     Writing output data file /home/jesus/Documentos/Nanociencia_DFT/silicano.save/
 
     init_run     :      1.10s CPU      1.29s WALL (       1 calls)
     electrons    :     12.81s CPU     13.85s WALL (       1 calls)
     update_pot   :      0.30s CPU      0.30s WALL (       1 calls)
     forces       :      0.45s CPU      0.52s WALL (       1 calls)

     Called by init_run:
     wfcinit      :      0.43s CPU      0.46s WALL (       1 calls)
     potinit      :      0.14s CPU      0.15s WALL (       1 calls)
     hinit0       :      0.40s CPU      0.47s WALL (       1 calls)

     Called by electrons:
     c_bands      :      9.62s CPU      9.87s WALL (       6 calls)
     sum_band     :      2.16s CPU      2.54s WALL (       6 calls)
     v_of_rho     :      0.40s CPU      0.43s WALL (       8 calls)
     newd         :      0.87s CPU      1.40s WALL (       8 calls)
     mix_rho      :      0.04s CPU      0.04s WALL (       6 calls)

     Called by c_bands:
     init_us_2    :      0.34s CPU      0.35s WALL (     294 calls)
     cegterg      :      8.27s CPU      8.50s WALL (     126 calls)

     Called by *egterg:
     cdiaghg      :      0.12s CPU      0.12s WALL (     701 calls)
     h_psi        :      7.53s CPU      7.75s WALL (     722 calls)
     s_psi        :      0.27s CPU      0.28s WALL (     722 calls)
     g_psi        :      0.03s CPU      0.03s WALL (     575 calls)

     Called by h_psi:
     h_psi:calbec :      0.32s CPU      0.33s WALL (     722 calls)
     vloc_psi     :      6.88s CPU      7.08s WALL (     722 calls)
     add_vuspsi   :      0.30s CPU      0.31s WALL (     722 calls)

     General routines
     calbec       :      0.43s CPU      0.44s WALL (     932 calls)
     fft          :      0.16s CPU      0.22s WALL (     114 calls)
     ffts         :      0.01s CPU      0.01s WALL (      14 calls)
     fftw         :      6.81s CPU      6.99s WALL (    8512 calls)
     interpolate  :      0.02s CPU      0.02s WALL (       8 calls)
     davcio       :      0.00s CPU      0.07s WALL (      21 calls)
 
     Parallel routines
 
     PWSCF        :     15.66s CPU     17.28s WALL

 
   This run was terminated on:  22:57:44   1Apr2021            

=------------------------------------------------------------------------------=
   JOB DONE.
=------------------------------------------------------------------------------=
