
     Program PWSCF v.6.6 starts on  1Apr2021 at 23:54:51 

     This program is part of the open-source Quantum ESPRESSO suite
     for quantum simulation of materials; please cite
         "P. Giannozzi et al., J. Phys.:Condens. Matter 21 395502 (2009);
         "P. Giannozzi et al., J. Phys.:Condens. Matter 29 465901 (2017);
          URL http://www.quantum-espresso.org", 
     in publications or presentations arising from this work. More details at
     http://www.quantum-espresso.org/quote

     Parallel version (MPI), running on     1 processors

     MPI processes distributed on     1 nodes
     Fft bands division:     nmany     =       1
     Waiting for input...
     Reading input from standard input
Warning: card &CELL ignored
Warning: card   CELL_DYNAMICS='BFGS', ignored
Warning: card   CELL_DOFREE='ALL', ignored
Warning: card / ignored

     Current dimensions of program PWSCF are:
     Max number of different atomic species (ntypx) = 10
     Max number of k-points (npk) =  40000
     Max angular momentum in pseudopotentials (lmaxx) =  3

     File /home/jesus/Documentos/Nanociencia_DFT/silicano.update deleted, as requested

     File /home/jesus/Documentos/Nanociencia_DFT/silicano.bfgs deleted, as requested

     Subspace diagonalization in iterative solution of the eigenvalue problem:
     a serial algorithm will be used

     Message from routine setup:
     using ibrav=0 with symmetry is DISCOURAGED, use correct ibrav instead
 
     G-vector sticks info
     --------------------
     sticks:   dense  smooth     PW     G-vecs:    dense   smooth      PW
     Sum         769     517    163                91099    49655    8859
 


     bravais-lattice index     =            0
     lattice parameter (alat)  =       7.3605  a.u.
     unit-cell volume          =    1776.3880 (a.u.)^3
     number of atoms/cell      =            4
     number of atomic types    =            2
     number of electrons       =        10.00
     number of Kohn-Sham states=            9
     kinetic-energy cutoff     =      35.0000  Ry
     charge density cutoff     =     210.0000  Ry
     convergence threshold     =      1.0E-06
     mixing beta               =       0.7000
     number of iterations used =            8  plain     mixing
     Exchange-correlation= PBE
                           (   1   4   3   4   0   0   0)
     nstep                     =            1


     celldm(1)=   7.360483  celldm(2)=   0.000000  celldm(3)=   0.000000
     celldm(4)=   0.000000  celldm(5)=   0.000000  celldm(6)=   0.000000

     crystal axes: (cart. coord. in units of alat)
               a(1) = (   0.500000   0.866000   0.000000 )  
               a(2) = (  -0.500000   0.866000   0.000000 )  
               a(3) = (   0.000000   0.000000   5.144000 )  

     reciprocal axes: (cart. coord. in units 2 pi/alat)
               b(1) = (  1.000000  0.577367  0.000000 )  
               b(2) = ( -1.000000  0.577367  0.000000 )  
               b(3) = (  0.000000  0.000000  0.194401 )  


     PseudoPot. # 1 for Si read from file:
     /home/jesus/Nanociencia_DFT/pseudopotenciales/Si.pbe-n-rrkjus_psl.1.0.0.UPF
     MD5 check sum: fa25574f73a70a4139f2adfbefec430c
     Pseudo is Ultrasoft + core correction, Zval =  4.0
     Generated using "atomic" code by A. Dal Corso v.6.3
     Using radial grid of 1141 points,  6 beta functions with: 
                l(1) =   0
                l(2) =   0
                l(3) =   1
                l(4) =   1
                l(5) =   2
                l(6) =   2
     Q(r) pseudized with 0 coefficients 


     PseudoPot. # 2 for H  read from file:
     /home/jesus/Nanociencia_DFT/pseudopotenciales/H.pbe-rrkjus_psl.1.0.0.UPF
     MD5 check sum: 3f4114867bd07edc7f1424d066fc1888
     Pseudo is Ultrasoft, Zval =  1.0
     Generated using "atomic" code by A. Dal Corso v.6.3MaX
     Using radial grid of  929 points,  2 beta functions with: 
                l(1) =   0
                l(2) =   0
     Q(r) pseudized with 0 coefficients 


     atomic species   valence    mass     pseudopotential
        Si             4.00    28.08550     Si( 1.00)
        H              1.00     1.00800     H ( 1.00)

      2 Sym. Ops. (no inversion) found



   Cartesian axes

     site n.     atom                  positions (alat units)
         1           H   tau(   1) = (   0.0000000   0.0000000   0.0000000  )
         2           Si  tau(   2) = (   0.0000000   0.0000000   0.3858000  )
         3           Si  tau(   3) = (   0.0000000   0.5767560   0.5709840  )
         4           H   tau(   4) = (   0.0000000   0.5767560   0.9567840  )

     number of k points=    21  Methfessel-Paxton smearing, width (Ry)=  0.0100
                       cart. coord. in units 2pi/alat
        k(    1) = (   0.0000000   0.0000000   0.0000000), wk =   0.0312500
        k(    2) = (  -0.1250000   0.0721709   0.0000000), wk =   0.1250000
        k(    3) = (  -0.2500000   0.1443418   0.0000000), wk =   0.1250000
        k(    4) = (  -0.3750000   0.2165127   0.0000000), wk =   0.1250000
        k(    5) = (   0.5000000  -0.2886836   0.0000000), wk =   0.0625000
        k(    6) = (   0.0000000   0.1443418   0.0000000), wk =   0.0625000
        k(    7) = (  -0.1250000   0.2165127   0.0000000), wk =   0.1250000
        k(    8) = (  -0.2500000   0.2886836   0.0000000), wk =   0.1250000
        k(    9) = (   0.6250000  -0.2165127   0.0000000), wk =   0.1250000
        k(   10) = (   0.5000000  -0.1443418   0.0000000), wk =   0.1250000
        k(   11) = (   0.3750000  -0.0721709   0.0000000), wk =   0.1250000
        k(   12) = (   0.2500000   0.0000000   0.0000000), wk =   0.0625000
        k(   13) = (   0.0000000   0.2886836   0.0000000), wk =   0.0625000
        k(   14) = (  -0.1250000   0.3608545   0.0000000), wk =   0.1250000
        k(   15) = (   0.7500000  -0.1443418   0.0000000), wk =   0.1250000
        k(   16) = (   0.6250000  -0.0721709   0.0000000), wk =   0.1250000
        k(   17) = (   0.5000000   0.0000000   0.0000000), wk =   0.0625000
        k(   18) = (   0.0000000   0.4330254   0.0000000), wk =   0.0625000
        k(   19) = (   0.8750000  -0.0721709   0.0000000), wk =   0.1250000
        k(   20) = (   0.7500000   0.0000000   0.0000000), wk =   0.0625000
        k(   21) = (   0.0000000  -0.5773672   0.0000000), wk =   0.0312500

     Dense  grid:    91099 G-vectors     FFT dimensions: (  36,  36, 180)

     Smooth grid:    49655 G-vectors     FFT dimensions: (  27,  27, 144)

     Estimated max dynamical RAM per process >     346.06 MB

     Initial potential from superposition of free atoms

     starting charge    9.99886, renormalised to   10.00000

     negative rho (up, down):  1.011E-04 0.000E+00
     Starting wfcs are   10 randomized atomic wfcs

     total cpu time spent up to now is        2.9 secs

     Self-consistent Calculation

     iteration #  1     ecut=    35.00 Ry     beta= 0.70
     Davidson diagonalization with overlap
     ethr =  1.00E-02,  avg # of iterations =  3.1

     negative rho (up, down):  8.170E-05 0.000E+00

     total cpu time spent up to now is        6.8 secs

     total energy              =     -25.15084350 Ry
     estimated scf accuracy    <       0.16419134 Ry

     iteration #  2     ecut=    35.00 Ry     beta= 0.70
     Davidson diagonalization with overlap
     ethr =  1.64E-03,  avg # of iterations =  1.4

     negative rho (up, down):  9.676E-05 0.000E+00

     total cpu time spent up to now is        9.7 secs

     total energy              =     -25.16060195 Ry
     estimated scf accuracy    <       0.00469441 Ry

     iteration #  3     ecut=    35.00 Ry     beta= 0.70
     Davidson diagonalization with overlap
     ethr =  4.69E-05,  avg # of iterations =  8.7

     negative rho (up, down):  9.854E-05 0.000E+00

     total cpu time spent up to now is       14.5 secs

     total energy              =     -25.16141634 Ry
     estimated scf accuracy    <       0.00027097 Ry

     iteration #  4     ecut=    35.00 Ry     beta= 0.70
     Davidson diagonalization with overlap
     ethr =  2.71E-06,  avg # of iterations =  5.4

     negative rho (up, down):  1.018E-04 0.000E+00

     total cpu time spent up to now is       18.3 secs

     total energy              =     -25.16146181 Ry
     estimated scf accuracy    <       0.00002427 Ry

     iteration #  5     ecut=    35.00 Ry     beta= 0.70
     Davidson diagonalization with overlap
     ethr =  2.43E-07,  avg # of iterations =  1.7

     negative rho (up, down):  1.019E-04 0.000E+00

     total cpu time spent up to now is       21.3 secs

     total energy              =     -25.16146455 Ry
     estimated scf accuracy    <       0.00000125 Ry

     iteration #  6     ecut=    35.00 Ry     beta= 0.70
     Davidson diagonalization with overlap
     ethr =  1.25E-08,  avg # of iterations =  2.0

     negative rho (up, down):  1.021E-04 0.000E+00

     total cpu time spent up to now is       24.5 secs

     End of self-consistent calculation

          k = 0.0000 0.0000 0.0000 (  6113 PWs)   bands (ev):

   -13.6859  -9.1380  -5.8806  -3.4015  -3.3861  -1.0762   0.5199   0.5365
     0.7760

          k =-0.1250 0.0722 0.0000 (  6178 PWs)   bands (ev):

   -13.5166  -9.0990  -5.8804  -4.5421  -3.7039  -0.4804   0.5713   1.0729
     1.1347

          k =-0.2500 0.1443 0.0000 (  6194 PWs)   bands (ev):

   -13.0224  -9.1174  -6.1401  -5.8417  -4.2502  -0.8245   1.0965   1.3681
     2.3790

          k =-0.3750 0.2165 0.0000 (  6232 PWs)   bands (ev):

   -12.2722  -9.6182  -6.8672  -5.9952  -4.6583  -1.1338   0.6391   1.3319
     2.9894

          k = 0.5000-0.2887 0.0000 (  6222 PWs)   bands (ev):

   -11.7005 -10.2129  -6.9455  -6.0961  -4.8034  -1.2073   0.2829   1.3145
     3.0065

          k = 0.0000 0.1443 0.0000 (  6178 PWs)   bands (ev):

   -13.5164  -9.0992  -5.8806  -4.5500  -3.6946  -0.4775   0.5752   1.0735
     1.1245

          k =-0.1250 0.2165 0.0000 (  6171 PWs)   bands (ev):

   -13.1838  -9.0825  -5.9058  -5.6064  -4.3591   0.1750   0.4264   1.2711
     1.6345

          k =-0.2500 0.2887 0.0000 (  6216 PWs)   bands (ev):

   -12.5505  -9.3337  -6.5558  -5.9949  -5.0520  -0.0692   1.1051   1.2751
     2.0356

          k = 0.6250-0.2165 0.0000 (  6229 PWs)   bands (ev):

   -11.7683 -10.0512  -6.8583  -6.1060  -5.4076  -0.1599   0.5127   1.3285
     2.2542

          k = 0.5000-0.1443 0.0000 (  6229 PWs)   bands (ev):

   -11.7692 -10.0496  -6.8586  -6.1046  -5.4096  -0.1588   0.5118   1.3286
     2.2537

          k = 0.3750-0.0722 0.0000 (  6216 PWs)   bands (ev):

   -12.5514  -9.3318  -6.5539  -5.9930  -5.0577  -0.0676   1.1068   1.2726
     2.0336

          k = 0.2500 0.0000 0.0000 (  6171 PWs)   bands (ev):

   -13.1843  -9.0817  -5.9052  -5.5988  -4.3692   0.1799   0.4172   1.2732
     1.6338

          k = 0.0000 0.2887 0.0000 (  6194 PWs)   bands (ev):

   -13.0216  -9.1188  -6.1450  -5.8428  -4.2433  -0.8182   1.0965   1.3673
     2.1530

          k =-0.1250 0.3609 0.0000 (  6216 PWs)   bands (ev):

   -12.5496  -9.3355  -6.5582  -5.9947  -5.0492  -0.0630   1.1055   1.2734
     2.0340

          k = 0.7500-0.1443 0.0000 (  6241 PWs)   bands (ev):

   -11.8260  -9.8922  -6.5777  -6.3660  -5.8452   0.7476   1.0322   1.7994
     2.1530

          k = 0.6250-0.0722 0.0000 (  6221 PWs)   bands (ev):

   -11.1970 -10.4800  -6.7014  -6.2675  -6.2204   0.6107   1.3787   1.4496
     2.0312

          k = 0.5000 0.0000 0.0000 (  6241 PWs)   bands (ev):

   -11.8289  -9.8870  -6.5760  -6.3655  -5.8498   0.7489   1.0318   1.7961
     2.1448

          k = 0.0000 0.4330 0.0000 (  6232 PWs)   bands (ev):

   -12.2693  -9.6238  -6.8685  -5.9970  -4.6527  -1.1277   0.6403   1.3296
     2.9889

          k = 0.8750-0.0722 0.0000 (  6229 PWs)   bands (ev):

   -11.7638 -10.0586  -6.8585  -6.1077  -5.4034  -0.1536   0.5141   1.3256
     2.2545

          k = 0.7500 0.0000 0.0000 (  6221 PWs)   bands (ev):

   -11.1900 -10.4888  -6.7017  -6.2634  -6.2224   0.6115   1.3774   1.4504
     2.0366

          k = 0.0000-0.5774 0.0000 (  6222 PWs)   bands (ev):

   -11.6932 -10.2240  -6.9446  -6.0991  -4.7982  -1.2013   0.2849   1.3111
     3.0069

     the Fermi energy is    -3.2785 ev

!    total energy              =     -25.16146464 Ry
     estimated scf accuracy    <       0.00000037 Ry
     smearing contrib. (-TS)   =       0.00001857 Ry
     internal energy E=F+TS    =     -25.16148321 Ry

     The total energy is F=E-TS. E is the sum of the following terms:
     one-electron contribution =    -110.72471711 Ry
     hartree contribution      =      56.67371682 Ry
     xc contribution           =     -13.63941044 Ry
     ewald contribution        =      42.52892752 Ry

     convergence has been achieved in   6 iterations

     negative rho (up, down):  1.021E-04 0.000E+00

     Forces acting on atoms (cartesian axes, Ry/au):

     atom    1 type  2   force =     0.00000000   -0.00001054    0.00014839
     atom    2 type  1   force =     0.00000000   -0.00101680    0.00137549
     atom    3 type  1   force =     0.00000000    0.00101891   -0.00111765
     atom    4 type  2   force =     0.00000000    0.00000843   -0.00040623

     Total force =     0.002324     Total SCF correction =     0.001136
     SCF correction compared to forces is large: reduce conv_thr to get better values

     BFGS Geometry Optimization

     number of scf cycles    =   1
     number of bfgs steps    =   0

     energy   new            =     -25.1614646424 Ry

     new trust radius        =       0.0017105133 bohr

     The maximum number of steps has been reached.

     End of BFGS Geometry Optimization

ATOMIC_POSITIONS (crystal)
H            -0.0000008271       -0.0000008271        0.0000039191
Si           -0.0000797591       -0.0000797591        0.0750363288
Si            0.3330799251        0.3330799251        0.1109704812
H             0.3330006611        0.3330006611        0.1859892709



     Writing output data file /home/jesus/Documentos/Nanociencia_DFT/silicano.save/
     NEW-OLD atomic charge density approx. for the potential

     negative rho (up, down):  1.021E-04 0.000E+00

     Writing output data file /home/jesus/Documentos/Nanociencia_DFT/silicano.save/
 
     init_run     :      1.93s CPU      2.13s WALL (       1 calls)
     electrons    :     20.07s CPU     21.56s WALL (       1 calls)
     update_pot   :      0.56s CPU      0.56s WALL (       1 calls)
     forces       :      0.87s CPU      1.01s WALL (       1 calls)

     Called by init_run:
     wfcinit      :      0.78s CPU      0.80s WALL (       1 calls)
     potinit      :      0.28s CPU      0.30s WALL (       1 calls)
     hinit0       :      0.57s CPU      0.60s WALL (       1 calls)

     Called by electrons:
     c_bands      :     14.24s CPU     14.28s WALL (       6 calls)
     sum_band     :      3.73s CPU      4.43s WALL (       6 calls)
     v_of_rho     :      0.83s CPU      0.88s WALL (       8 calls)
     newd         :      1.73s CPU      2.70s WALL (       8 calls)
     mix_rho      :      0.08s CPU      0.08s WALL (       6 calls)

     Called by c_bands:
     init_us_2    :      0.62s CPU      0.63s WALL (     294 calls)
     cegterg      :     11.77s CPU     11.81s WALL (     126 calls)

     Called by *egterg:
     cdiaghg      :      0.09s CPU      0.09s WALL (     596 calls)
     h_psi        :     10.79s CPU     10.83s WALL (     617 calls)
     s_psi        :      0.44s CPU      0.44s WALL (     617 calls)
     g_psi        :      0.05s CPU      0.05s WALL (     470 calls)

     Called by h_psi:
     h_psi:calbec :      0.49s CPU      0.50s WALL (     617 calls)
     vloc_psi     :      9.79s CPU      9.83s WALL (     617 calls)
     add_vuspsi   :      0.44s CPU      0.45s WALL (     617 calls)

     General routines
     calbec       :      0.72s CPU      0.72s WALL (     827 calls)
     fft          :      0.36s CPU      0.38s WALL (     114 calls)
     ffts         :      0.02s CPU      0.02s WALL (      14 calls)
     fftw         :     10.00s CPU     10.04s WALL (    8248 calls)
     interpolate  :      0.05s CPU      0.05s WALL (       8 calls)
     davcio       :      0.00s CPU      0.01s WALL (      21 calls)
 
     Parallel routines
 
     PWSCF        :     24.43s CPU     26.44s WALL

 
   This run was terminated on:  23:55:17   1Apr2021            

=------------------------------------------------------------------------------=
   JOB DONE.
=------------------------------------------------------------------------------=
