
     Program PWSCF v.6.6 starts on  1Apr2021 at 22:58:22 

     This program is part of the open-source Quantum ESPRESSO suite
     for quantum simulation of materials; please cite
         "P. Giannozzi et al., J. Phys.:Condens. Matter 21 395502 (2009);
         "P. Giannozzi et al., J. Phys.:Condens. Matter 29 465901 (2017);
          URL http://www.quantum-espresso.org", 
     in publications or presentations arising from this work. More details at
     http://www.quantum-espresso.org/quote

     Parallel version (MPI), running on     1 processors

     MPI processes distributed on     1 nodes
     Fft bands division:     nmany     =       1
     Waiting for input...
     Reading input from standard input
Warning: card &CELL ignored
Warning: card   CELL_DYNAMICS='BFGS', ignored
Warning: card   CELL_DOFREE='ALL', ignored
Warning: card / ignored

     Current dimensions of program PWSCF are:
     Max number of different atomic species (ntypx) = 10
     Max number of k-points (npk) =  40000
     Max angular momentum in pseudopotentials (lmaxx) =  3

     File /home/jesus/Documentos/Nanociencia_DFT/silicano.update deleted, as requested

     File /home/jesus/Documentos/Nanociencia_DFT/silicano.bfgs deleted, as requested

     Subspace diagonalization in iterative solution of the eigenvalue problem:
     a serial algorithm will be used

     Message from routine setup:
     using ibrav=0 with symmetry is DISCOURAGED, use correct ibrav instead
 
     G-vector sticks info
     --------------------
     sticks:   dense  smooth     PW     G-vecs:    dense   smooth      PW
     Sum         595     397    121                60687    32933    6091
 


     bravais-lattice index     =            0
     lattice parameter (alat)  =       6.4251  a.u.
     unit-cell volume          =    1181.5503 (a.u.)^3
     number of atoms/cell      =            4
     number of atomic types    =            2
     number of electrons       =        10.00
     number of Kohn-Sham states=            9
     kinetic-energy cutoff     =      35.0000  Ry
     charge density cutoff     =     210.0000  Ry
     convergence threshold     =      1.0E-06
     mixing beta               =       0.7000
     number of iterations used =            8  plain     mixing
     Exchange-correlation= PBE
                           (   1   4   3   4   0   0   0)
     nstep                     =            1


     celldm(1)=   6.425069  celldm(2)=   0.000000  celldm(3)=   0.000000
     celldm(4)=   0.000000  celldm(5)=   0.000000  celldm(6)=   0.000000

     crystal axes: (cart. coord. in units of alat)
               a(1) = (   0.500000   0.866000   0.000000 )  
               a(2) = (  -0.500000   0.866000   0.000000 )  
               a(3) = (   0.000000   0.000000   5.144000 )  

     reciprocal axes: (cart. coord. in units 2 pi/alat)
               b(1) = (  1.000000  0.577367  0.000000 )  
               b(2) = ( -1.000000  0.577367  0.000000 )  
               b(3) = (  0.000000  0.000000  0.194401 )  


     PseudoPot. # 1 for Si read from file:
     /home/jesus/Nanociencia_DFT/pseudopotenciales/Si.pbe-n-rrkjus_psl.1.0.0.UPF
     MD5 check sum: fa25574f73a70a4139f2adfbefec430c
     Pseudo is Ultrasoft + core correction, Zval =  4.0
     Generated using "atomic" code by A. Dal Corso v.6.3
     Using radial grid of 1141 points,  6 beta functions with: 
                l(1) =   0
                l(2) =   0
                l(3) =   1
                l(4) =   1
                l(5) =   2
                l(6) =   2
     Q(r) pseudized with 0 coefficients 


     PseudoPot. # 2 for H  read from file:
     /home/jesus/Nanociencia_DFT/pseudopotenciales/H.pbe-rrkjus_psl.1.0.0.UPF
     MD5 check sum: 3f4114867bd07edc7f1424d066fc1888
     Pseudo is Ultrasoft, Zval =  1.0
     Generated using "atomic" code by A. Dal Corso v.6.3MaX
     Using radial grid of  929 points,  2 beta functions with: 
                l(1) =   0
                l(2) =   0
     Q(r) pseudized with 0 coefficients 


     atomic species   valence    mass     pseudopotential
        Si             4.00    28.08550     Si( 1.00)
        H              1.00     1.00800     H ( 1.00)

      2 Sym. Ops. (no inversion) found



   Cartesian axes

     site n.     atom                  positions (alat units)
         1           H   tau(   1) = (   0.0000000   0.0000000   0.0000000  )
         2           Si  tau(   2) = (   0.0000000   0.0000000   0.3858000  )
         3           Si  tau(   3) = (   0.0000000   0.5767560   0.5709840  )
         4           H   tau(   4) = (   0.0000000   0.5767560   0.9567840  )

     number of k points=    21  Methfessel-Paxton smearing, width (Ry)=  0.0100
                       cart. coord. in units 2pi/alat
        k(    1) = (   0.0000000   0.0000000   0.0000000), wk =   0.0312500
        k(    2) = (  -0.1250000   0.0721709   0.0000000), wk =   0.1250000
        k(    3) = (  -0.2500000   0.1443418   0.0000000), wk =   0.1250000
        k(    4) = (  -0.3750000   0.2165127   0.0000000), wk =   0.1250000
        k(    5) = (   0.5000000  -0.2886836   0.0000000), wk =   0.0625000
        k(    6) = (   0.0000000   0.1443418   0.0000000), wk =   0.0625000
        k(    7) = (  -0.1250000   0.2165127   0.0000000), wk =   0.1250000
        k(    8) = (  -0.2500000   0.2886836   0.0000000), wk =   0.1250000
        k(    9) = (   0.6250000  -0.2165127   0.0000000), wk =   0.1250000
        k(   10) = (   0.5000000  -0.1443418   0.0000000), wk =   0.1250000
        k(   11) = (   0.3750000  -0.0721709   0.0000000), wk =   0.1250000
        k(   12) = (   0.2500000   0.0000000   0.0000000), wk =   0.0625000
        k(   13) = (   0.0000000   0.2886836   0.0000000), wk =   0.0625000
        k(   14) = (  -0.1250000   0.3608545   0.0000000), wk =   0.1250000
        k(   15) = (   0.7500000  -0.1443418   0.0000000), wk =   0.1250000
        k(   16) = (   0.6250000  -0.0721709   0.0000000), wk =   0.1250000
        k(   17) = (   0.5000000   0.0000000   0.0000000), wk =   0.0625000
        k(   18) = (   0.0000000   0.4330254   0.0000000), wk =   0.0625000
        k(   19) = (   0.8750000  -0.0721709   0.0000000), wk =   0.1250000
        k(   20) = (   0.7500000   0.0000000   0.0000000), wk =   0.0625000
        k(   21) = (   0.0000000  -0.5773672   0.0000000), wk =   0.0312500

     Dense  grid:    60687 G-vectors     FFT dimensions: (  30,  30, 160)

     Smooth grid:    32933 G-vectors     FFT dimensions: (  25,  25, 125)

     Estimated max dynamical RAM per process >     230.50 MB

     Initial potential from superposition of free atoms

     starting charge    9.99886, renormalised to   10.00000

     negative rho (up, down):  7.152E-05 0.000E+00
     Starting wfcs are   10 randomized atomic wfcs

     total cpu time spent up to now is        2.6 secs

     Self-consistent Calculation

     iteration #  1     ecut=    35.00 Ry     beta= 0.70
     Davidson diagonalization with overlap
     ethr =  1.00E-02,  avg # of iterations =  5.1

     negative rho (up, down):  6.007E-05 0.000E+00

     total cpu time spent up to now is        5.6 secs

     total energy              =     -24.93617001 Ry
     estimated scf accuracy    <       0.28191874 Ry

     iteration #  2     ecut=    35.00 Ry     beta= 0.70
     Davidson diagonalization with overlap
     ethr =  2.82E-03,  avg # of iterations =  2.0

     negative rho (up, down):  8.337E-05 0.000E+00

     total cpu time spent up to now is        7.7 secs

     total energy              =     -24.95936048 Ry
     estimated scf accuracy    <       0.00513973 Ry

     iteration #  3     ecut=    35.00 Ry     beta= 0.70
     Davidson diagonalization with overlap
     ethr =  5.14E-05,  avg # of iterations =  9.8

     negative rho (up, down):  9.150E-05 0.000E+00

     total cpu time spent up to now is       11.1 secs

     total energy              =     -24.96046889 Ry
     estimated scf accuracy    <       0.00021824 Ry

     iteration #  4     ecut=    35.00 Ry     beta= 0.70
     Davidson diagonalization with overlap
     c_bands:  1 eigenvalues not converged
     ethr =  2.18E-06,  avg # of iterations =  6.1

     negative rho (up, down):  9.529E-05 0.000E+00

     total cpu time spent up to now is       13.8 secs

     total energy              =     -24.96050496 Ry
     estimated scf accuracy    <       0.00001677 Ry

     iteration #  5     ecut=    35.00 Ry     beta= 0.70
     Davidson diagonalization with overlap
     ethr =  1.68E-07,  avg # of iterations =  2.3

     negative rho (up, down):  9.547E-05 0.000E+00

     total cpu time spent up to now is       16.2 secs

     total energy              =     -24.96050696 Ry
     estimated scf accuracy    <       0.00000797 Ry

     iteration #  6     ecut=    35.00 Ry     beta= 0.70
     Davidson diagonalization with overlap
     ethr =  7.97E-08,  avg # of iterations =  1.5

     negative rho (up, down):  9.582E-05 0.000E+00

     total cpu time spent up to now is       18.2 secs

     End of self-consistent calculation

          k = 0.0000 0.0000 0.0000 (  4083 PWs)   bands (ev):

   -14.8524  -9.5111  -5.4211  -1.9575  -1.9412   0.8100   2.0413   2.1269
     2.1431

          k =-0.1250 0.0722 0.0000 (  4103 PWs)   bands (ev):

   -14.6158  -9.3736  -5.3923  -3.4143  -2.4486   1.0840   1.9102   2.2372
     2.7060

          k =-0.2500 0.1443 0.0000 (  4114 PWs)   bands (ev):

   -13.9189  -9.0783  -5.7852  -5.2292  -3.2527   0.4629   2.3520   2.6545
     3.2843

          k =-0.3750 0.2165 0.0000 (  4132 PWs)   bands (ev):

   -12.8280  -9.3719  -7.0195  -5.4512  -3.8214  -0.0156   1.4505   3.0738
     4.1279

          k = 0.5000-0.2887 0.0000 (  4132 PWs)   bands (ev):

   -11.8951 -10.3089  -7.0258  -5.6449  -4.0196  -0.1648   1.0401   2.9906
     4.9691

          k = 0.0000 0.1443 0.0000 (  4103 PWs)   bands (ev):

   -14.6157  -9.3736  -5.3925  -3.4222  -2.4394   1.0886   1.9117   2.2376
     2.7054

          k =-0.1250 0.2165 0.0000 (  4134 PWs)   bands (ev):

   -14.1482  -9.1483  -5.3926  -4.8530  -3.5227   1.6946   2.0494   2.6819
     2.7082

          k =-0.2500 0.2887 0.0000 (  4115 PWs)   bands (ev):

   -13.2448  -9.0412  -6.4769  -5.4903  -4.4914   1.3513   2.1804   2.8612
     3.4846

          k = 0.6250-0.2165 0.0000 (  4150 PWs)   bands (ev):

   -12.0632  -9.9171  -6.9629  -5.6536  -4.9884   1.1061   1.4044   3.0529
     3.9366

          k = 0.5000-0.1443 0.0000 (  4150 PWs)   bands (ev):

   -12.0640  -9.9157  -6.9636  -5.6520  -4.9902   1.1085   1.4024   3.0510
     3.9366

          k = 0.3750-0.0722 0.0000 (  4115 PWs)   bands (ev):

   -13.2454  -9.0400  -6.4753  -5.4883  -4.4963   1.3536   2.1821   2.8543
     3.4830

          k = 0.2500 0.0000 0.0000 (  4134 PWs)   bands (ev):

   -14.1486  -9.1481  -5.3921  -4.8447  -3.5330   1.6967   2.0427   2.6796
     2.7093

          k = 0.0000 0.2887 0.0000 (  4114 PWs)   bands (ev):

   -13.9183  -9.0788  -5.7888  -5.2314  -3.2462   0.4688   2.3516   2.6524
     3.2841

          k =-0.1250 0.3609 0.0000 (  4115 PWs)   bands (ev):

   -13.2441  -9.0423  -6.4788  -5.4906  -4.4888   1.3575   2.1814   2.8557
     3.4846

          k = 0.7500-0.1443 0.0000 (  4150 PWs)   bands (ev):

   -12.1909  -9.5212  -6.4822  -6.4701  -5.3797   1.5940   2.3095   3.2614
     3.9165

          k = 0.6250-0.0722 0.0000 (  4180 PWs)   bands (ev):

   -11.2216 -10.3378  -7.0131  -6.1015  -5.8105   1.2734   2.7185   2.8162
     4.3197

          k = 0.5000 0.0000 0.0000 (  4150 PWs)   bands (ev):

   -12.1931  -9.5163  -6.4810  -6.4735  -5.3803   1.5933   2.3111   3.2585
     3.9081

          k = 0.0000 0.4330 0.0000 (  4132 PWs)   bands (ev):

   -12.8259  -9.3763  -7.0191  -5.4545  -3.8160  -0.0107   1.4521   3.0693
     4.1274

          k = 0.8750-0.0722 0.0000 (  4150 PWs)   bands (ev):

   -12.0595  -9.9238  -6.9606  -5.6568  -4.9850   1.1117   1.4070   3.0471
     3.9369

          k = 0.7500 0.0000 0.0000 (  4180 PWs)   bands (ev):

   -11.2147 -10.3470  -7.0106  -6.0980  -5.8144   1.2752   2.7175   2.8175
     4.3221

          k = 0.0000-0.5774 0.0000 (  4132 PWs)   bands (ev):

   -11.8881 -10.3195  -7.0220  -5.6503  -4.0145  -0.1607   1.0441   2.9838
     4.9706

     the Fermi energy is    -1.1220 ev

!    total energy              =     -24.96050836 Ry
     estimated scf accuracy    <       0.00000030 Ry
     smearing contrib. (-TS)   =       0.00000000 Ry
     internal energy E=F+TS    =     -24.96050836 Ry

     The total energy is F=E-TS. E is the sum of the following terms:
     one-electron contribution =    -122.37240993 Ry
     hartree contribution      =      62.93306748 Ry
     xc contribution           =     -14.24180489 Ry
     ewald contribution        =      48.72063898 Ry

     convergence has been achieved in   6 iterations

     negative rho (up, down):  9.582E-05 0.000E+00

     Forces acting on atoms (cartesian axes, Ry/au):

     atom    1 type  2   force =     0.00000000   -0.00003347   -0.19208241
     atom    2 type  1   force =     0.00000000   -0.00250269    0.01708609
     atom    3 type  1   force =     0.00000000    0.00249972   -0.01717977
     atom    4 type  2   force =     0.00000000    0.00003644    0.19217609

     Total force =     0.272813     Total SCF correction =     0.000451

     BFGS Geometry Optimization

     number of scf cycles    =   1
     number of bfgs steps    =   0

     energy   new            =     -24.9605083568 Ry

     new trust radius        =       0.1921760892 bohr

     The maximum number of steps has been reached.

     End of BFGS Geometry Optimization

ATOMIC_POSITIONS (crystal)
H            -0.0000030073       -0.0000030073       -0.0058117757
Si           -0.0002248958       -0.0002248958        0.0755169685
Si            0.3332246290        0.3332246290        0.1104801971
H             0.3330032741        0.3330032741        0.1918146101



     Writing output data file /home/jesus/Documentos/Nanociencia_DFT/silicano.save/
     NEW-OLD atomic charge density approx. for the potential

     negative rho (up, down):  8.710E-05 0.000E+00

     Writing output data file /home/jesus/Documentos/Nanociencia_DFT/silicano.save/
 
     init_run     :      1.45s CPU      1.65s WALL (       1 calls)
     electrons    :     14.59s CPU     15.67s WALL (       1 calls)
     update_pot   :      0.38s CPU      0.39s WALL (       1 calls)
     forces       :      0.65s CPU      0.72s WALL (       1 calls)

     Called by init_run:
     wfcinit      :      0.56s CPU      0.58s WALL (       1 calls)
     potinit      :      0.18s CPU      0.20s WALL (       1 calls)
     hinit0       :      0.52s CPU      0.56s WALL (       1 calls)

     Called by electrons:
     c_bands      :     10.61s CPU     10.72s WALL (       6 calls)
     sum_band     :      2.57s CPU      3.07s WALL (       6 calls)
     v_of_rho     :      0.53s CPU      0.57s WALL (       8 calls)
     newd         :      1.26s CPU      1.87s WALL (       8 calls)
     mix_rho      :      0.05s CPU      0.05s WALL (       6 calls)

     Called by c_bands:
     init_us_2    :      0.44s CPU      0.45s WALL (     294 calls)
     cegterg      :      8.91s CPU      9.02s WALL (     126 calls)

     Called by *egterg:
     cdiaghg      :      0.11s CPU      0.11s WALL (     688 calls)
     h_psi        :      8.15s CPU      8.25s WALL (     709 calls)
     s_psi        :      0.32s CPU      0.32s WALL (     709 calls)
     g_psi        :      0.03s CPU      0.04s WALL (     562 calls)

     Called by h_psi:
     h_psi:calbec :      0.36s CPU      0.36s WALL (     709 calls)
     vloc_psi     :      7.40s CPU      7.50s WALL (     709 calls)
     add_vuspsi   :      0.34s CPU      0.35s WALL (     709 calls)

     General routines
     calbec       :      0.52s CPU      0.52s WALL (     919 calls)
     fft          :      0.22s CPU      0.24s WALL (     114 calls)
     ffts         :      0.01s CPU      0.01s WALL (      14 calls)
     fftw         :      7.53s CPU      7.63s WALL (    8426 calls)
     interpolate  :      0.03s CPU      0.03s WALL (       8 calls)
     davcio       :      0.00s CPU      0.26s WALL (      21 calls)
 
     Parallel routines
 
     PWSCF        :     18.09s CPU     19.89s WALL

 
   This run was terminated on:  22:58:41   1Apr2021            

=------------------------------------------------------------------------------=
   JOB DONE.
=------------------------------------------------------------------------------=
