
     Program PWSCF v.6.6 starts on  1Apr2021 at 22:58:42 

     This program is part of the open-source Quantum ESPRESSO suite
     for quantum simulation of materials; please cite
         "P. Giannozzi et al., J. Phys.:Condens. Matter 21 395502 (2009);
         "P. Giannozzi et al., J. Phys.:Condens. Matter 29 465901 (2017);
          URL http://www.quantum-espresso.org", 
     in publications or presentations arising from this work. More details at
     http://www.quantum-espresso.org/quote

     Parallel version (MPI), running on     1 processors

     MPI processes distributed on     1 nodes
     Fft bands division:     nmany     =       1
     Waiting for input...
     Reading input from standard input
Warning: card &CELL ignored
Warning: card   CELL_DYNAMICS='BFGS', ignored
Warning: card   CELL_DOFREE='ALL', ignored
Warning: card / ignored

     Current dimensions of program PWSCF are:
     Max number of different atomic species (ntypx) = 10
     Max number of k-points (npk) =  40000
     Max angular momentum in pseudopotentials (lmaxx) =  3

     File /home/jesus/Documentos/Nanociencia_DFT/silicano.update deleted, as requested

     File /home/jesus/Documentos/Nanociencia_DFT/silicano.bfgs deleted, as requested

     Subspace diagonalization in iterative solution of the eigenvalue problem:
     a serial algorithm will be used

     Message from routine setup:
     using ibrav=0 with symmetry is DISCOURAGED, use correct ibrav instead
 
     G-vector sticks info
     --------------------
     sticks:   dense  smooth     PW     G-vecs:    dense   smooth      PW
     Sum         637     421    139                66313    36077    6679
 


     bravais-lattice index     =            0
     lattice parameter (alat)  =       6.6140  a.u.
     unit-cell volume          =    1288.9011 (a.u.)^3
     number of atoms/cell      =            4
     number of atomic types    =            2
     number of electrons       =        10.00
     number of Kohn-Sham states=            9
     kinetic-energy cutoff     =      35.0000  Ry
     charge density cutoff     =     210.0000  Ry
     convergence threshold     =      1.0E-06
     mixing beta               =       0.7000
     number of iterations used =            8  plain     mixing
     Exchange-correlation= PBE
                           (   1   4   3   4   0   0   0)
     nstep                     =            1


     celldm(1)=   6.614041  celldm(2)=   0.000000  celldm(3)=   0.000000
     celldm(4)=   0.000000  celldm(5)=   0.000000  celldm(6)=   0.000000

     crystal axes: (cart. coord. in units of alat)
               a(1) = (   0.500000   0.866000   0.000000 )  
               a(2) = (  -0.500000   0.866000   0.000000 )  
               a(3) = (   0.000000   0.000000   5.144000 )  

     reciprocal axes: (cart. coord. in units 2 pi/alat)
               b(1) = (  1.000000  0.577367  0.000000 )  
               b(2) = ( -1.000000  0.577367  0.000000 )  
               b(3) = (  0.000000  0.000000  0.194401 )  


     PseudoPot. # 1 for Si read from file:
     /home/jesus/Nanociencia_DFT/pseudopotenciales/Si.pbe-n-rrkjus_psl.1.0.0.UPF
     MD5 check sum: fa25574f73a70a4139f2adfbefec430c
     Pseudo is Ultrasoft + core correction, Zval =  4.0
     Generated using "atomic" code by A. Dal Corso v.6.3
     Using radial grid of 1141 points,  6 beta functions with: 
                l(1) =   0
                l(2) =   0
                l(3) =   1
                l(4) =   1
                l(5) =   2
                l(6) =   2
     Q(r) pseudized with 0 coefficients 


     PseudoPot. # 2 for H  read from file:
     /home/jesus/Nanociencia_DFT/pseudopotenciales/H.pbe-rrkjus_psl.1.0.0.UPF
     MD5 check sum: 3f4114867bd07edc7f1424d066fc1888
     Pseudo is Ultrasoft, Zval =  1.0
     Generated using "atomic" code by A. Dal Corso v.6.3MaX
     Using radial grid of  929 points,  2 beta functions with: 
                l(1) =   0
                l(2) =   0
     Q(r) pseudized with 0 coefficients 


     atomic species   valence    mass     pseudopotential
        Si             4.00    28.08550     Si( 1.00)
        H              1.00     1.00800     H ( 1.00)

      2 Sym. Ops. (no inversion) found



   Cartesian axes

     site n.     atom                  positions (alat units)
         1           H   tau(   1) = (   0.0000000   0.0000000   0.0000000  )
         2           Si  tau(   2) = (   0.0000000   0.0000000   0.3858000  )
         3           Si  tau(   3) = (   0.0000000   0.5767560   0.5709840  )
         4           H   tau(   4) = (   0.0000000   0.5767560   0.9567840  )

     number of k points=    21  Methfessel-Paxton smearing, width (Ry)=  0.0100
                       cart. coord. in units 2pi/alat
        k(    1) = (   0.0000000   0.0000000   0.0000000), wk =   0.0312500
        k(    2) = (  -0.1250000   0.0721709   0.0000000), wk =   0.1250000
        k(    3) = (  -0.2500000   0.1443418   0.0000000), wk =   0.1250000
        k(    4) = (  -0.3750000   0.2165127   0.0000000), wk =   0.1250000
        k(    5) = (   0.5000000  -0.2886836   0.0000000), wk =   0.0625000
        k(    6) = (   0.0000000   0.1443418   0.0000000), wk =   0.0625000
        k(    7) = (  -0.1250000   0.2165127   0.0000000), wk =   0.1250000
        k(    8) = (  -0.2500000   0.2886836   0.0000000), wk =   0.1250000
        k(    9) = (   0.6250000  -0.2165127   0.0000000), wk =   0.1250000
        k(   10) = (   0.5000000  -0.1443418   0.0000000), wk =   0.1250000
        k(   11) = (   0.3750000  -0.0721709   0.0000000), wk =   0.1250000
        k(   12) = (   0.2500000   0.0000000   0.0000000), wk =   0.0625000
        k(   13) = (   0.0000000   0.2886836   0.0000000), wk =   0.0625000
        k(   14) = (  -0.1250000   0.3608545   0.0000000), wk =   0.1250000
        k(   15) = (   0.7500000  -0.1443418   0.0000000), wk =   0.1250000
        k(   16) = (   0.6250000  -0.0721709   0.0000000), wk =   0.1250000
        k(   17) = (   0.5000000   0.0000000   0.0000000), wk =   0.0625000
        k(   18) = (   0.0000000   0.4330254   0.0000000), wk =   0.0625000
        k(   19) = (   0.8750000  -0.0721709   0.0000000), wk =   0.1250000
        k(   20) = (   0.7500000   0.0000000   0.0000000), wk =   0.0625000
        k(   21) = (   0.0000000  -0.5773672   0.0000000), wk =   0.0312500

     Dense  grid:    66313 G-vectors     FFT dimensions: (  32,  32, 160)

     Smooth grid:    36077 G-vectors     FFT dimensions: (  25,  25, 135)

     Estimated max dynamical RAM per process >     252.08 MB

     Initial potential from superposition of free atoms

     starting charge    9.99886, renormalised to   10.00000

     negative rho (up, down):  7.855E-05 0.000E+00
     Starting wfcs are   10 randomized atomic wfcs

     total cpu time spent up to now is        2.8 secs

     Self-consistent Calculation

     iteration #  1     ecut=    35.00 Ry     beta= 0.70
     Davidson diagonalization with overlap
     ethr =  1.00E-02,  avg # of iterations =  4.9

     negative rho (up, down):  6.594E-05 0.000E+00

     total cpu time spent up to now is        6.2 secs

     total energy              =     -25.02368828 Ry
     estimated scf accuracy    <       0.25189301 Ry

     iteration #  2     ecut=    35.00 Ry     beta= 0.70
     Davidson diagonalization with overlap
     ethr =  2.52E-03,  avg # of iterations =  1.8

     negative rho (up, down):  8.600E-05 0.000E+00

     total cpu time spent up to now is        8.5 secs

     total energy              =     -25.04268082 Ry
     estimated scf accuracy    <       0.00464800 Ry

     iteration #  3     ecut=    35.00 Ry     beta= 0.70
     Davidson diagonalization with overlap
     c_bands:  1 eigenvalues not converged
     ethr =  4.65E-05,  avg # of iterations = 10.1

     negative rho (up, down):  9.398E-05 0.000E+00

     total cpu time spent up to now is       12.3 secs

     total energy              =     -25.04357890 Ry
     estimated scf accuracy    <       0.00017454 Ry

     iteration #  4     ecut=    35.00 Ry     beta= 0.70
     Davidson diagonalization with overlap
     c_bands:  1 eigenvalues not converged
     ethr =  1.75E-06,  avg # of iterations =  7.1

     negative rho (up, down):  9.677E-05 0.000E+00

     total cpu time spent up to now is       15.5 secs

     total energy              =     -25.04360921 Ry
     estimated scf accuracy    <       0.00001008 Ry

     iteration #  5     ecut=    35.00 Ry     beta= 0.70
     Davidson diagonalization with overlap
     ethr =  1.01E-07,  avg # of iterations =  2.1

     negative rho (up, down):  9.693E-05 0.000E+00

     total cpu time spent up to now is       18.0 secs

     total energy              =     -25.04361095 Ry
     estimated scf accuracy    <       0.00000630 Ry

     iteration #  6     ecut=    35.00 Ry     beta= 0.70
     Davidson diagonalization with overlap
     ethr =  6.30E-08,  avg # of iterations =  1.5

     negative rho (up, down):  9.729E-05 0.000E+00

     total cpu time spent up to now is       20.4 secs

     End of self-consistent calculation

          k = 0.0000 0.0000 0.0000 (  4505 PWs)   bands (ev):

   -14.5920  -9.4149  -5.5354  -2.3393  -2.3230   0.4571   1.7541   1.7558
     1.7723

          k =-0.1250 0.0722 0.0000 (  4499 PWs)   bands (ev):

   -14.3711  -9.2988  -5.5149  -3.7102  -2.7818   0.7603   1.6264   2.0229
     2.3556

          k =-0.2500 0.1443 0.0000 (  4523 PWs)   bands (ev):

   -13.7219  -9.0758  -5.8935  -5.3934  -3.5244   0.1760   2.0939   2.3588
     3.0236

          k =-0.3750 0.2165 0.0000 (  4511 PWs)   bands (ev):

   -12.7119  -9.4367  -6.9988  -5.5977  -4.0563  -0.2580   1.2757   2.6739
     3.8015

          k = 0.5000-0.2887 0.0000 (  4516 PWs)   bands (ev):

   -11.8720 -10.2847  -7.0284  -5.7666  -4.2425  -0.3812   0.8724   2.6004
     4.5310

          k = 0.0000 0.1443 0.0000 (  4499 PWs)   bands (ev):

   -14.3710  -9.2989  -5.5151  -3.7182  -2.7724   0.7648   1.6281   2.0232
     2.3547

          k =-0.1250 0.2165 0.0000 (  4492 PWs)   bands (ev):

   -13.9352  -9.1201  -5.5240  -5.0657  -3.7483   1.3672   1.6721   2.4112
     2.4242

          k =-0.2500 0.2887 0.0000 (  4504 PWs)   bands (ev):

   -13.0955  -9.1087  -6.5185  -5.6256  -4.6549   1.0338   1.9569   2.4841
     3.1702

          k = 0.6250-0.2165 0.0000 (  4520 PWs)   bands (ev):

   -12.0114  -9.9558  -6.9558  -5.7770  -5.1179   0.8567   1.1903   2.6508
     3.5526

          k = 0.5000-0.1443 0.0000 (  4520 PWs)   bands (ev):

   -12.0123  -9.9543  -6.9564  -5.7753  -5.1199   0.8592   1.1881   2.6492
     3.5525

          k = 0.3750-0.0722 0.0000 (  4504 PWs)   bands (ev):

   -13.0962  -9.1073  -6.5168  -5.6235  -4.6602   1.0360   1.9590   2.4774
     3.1686

          k = 0.2500 0.0000 0.0000 (  4492 PWs)   bands (ev):

   -13.9356  -9.1198  -5.5234  -5.0574  -3.7588   1.3699   1.6645   2.4126
     2.4225

          k = 0.0000 0.2887 0.0000 (  4523 PWs)   bands (ev):

   -13.7213  -9.0764  -5.8977  -5.3952  -3.5176   0.1821   2.0939   2.3567
     3.0235

          k =-0.1250 0.3609 0.0000 (  4504 PWs)   bands (ev):

   -13.0948  -9.1099  -6.5206  -5.6256  -4.6523   1.0401   1.9581   2.4786
     3.1702

          k = 0.7500-0.1443 0.0000 (  4500 PWs)   bands (ev):

   -12.1207  -9.6253  -6.5217  -6.4533  -5.5214   1.4060   2.0416   2.9259
     3.4764

          k = 0.6250-0.0722 0.0000 (  4494 PWs)   bands (ev):

   -11.2377 -10.3859  -6.9472  -6.1694  -5.9261   1.1316   2.4192   2.5116
     3.8116

          k = 0.5000 0.0000 0.0000 (  4500 PWs)   bands (ev):

   -12.1231  -9.6202  -6.5204  -6.4561  -5.5227   1.4058   2.0431   2.9227
     3.4677

          k = 0.0000 0.4330 0.0000 (  4511 PWs)   bands (ev):

   -12.7096  -9.4415  -6.9988  -5.6006  -4.0507  -0.2528   1.2772   2.6697
     3.8019

          k = 0.8750-0.0722 0.0000 (  4520 PWs)   bands (ev):

   -12.0075  -9.9628  -6.9540  -5.7797  -5.1142   0.8627   1.1926   2.6451
     3.5530

          k = 0.7500 0.0000 0.0000 (  4494 PWs)   bands (ev):

   -11.2307 -10.3952  -6.9452  -6.1659  -5.9295   1.1331   2.4183   2.5128
     3.8145

          k = 0.0000-0.5774 0.0000 (  4512 PWs)   bands (ev):

   -11.8648 -10.2957  -7.0253  -5.7714  -4.2372  -0.3766   0.8759   2.5942
     4.5324

     the Fermi energy is    -1.3419 ev

!    total energy              =     -25.04361202 Ry
     estimated scf accuracy    <       0.00000025 Ry
     smearing contrib. (-TS)   =       0.00000000 Ry
     internal energy E=F+TS    =     -25.04361202 Ry

     The total energy is F=E-TS. E is the sum of the following terms:
     one-electron contribution =    -119.81960869 Ry
     hartree contribution      =      61.55106610 Ry
     xc contribution           =     -14.10369018 Ry
     ewald contribution        =      47.32862075 Ry

     convergence has been achieved in   6 iterations

     negative rho (up, down):  9.729E-05 0.000E+00

     Forces acting on atoms (cartesian axes, Ry/au):

     atom    1 type  2   force =     0.00000000   -0.00002528   -0.13965248
     atom    2 type  1   force =     0.00000000   -0.00212376    0.01618706
     atom    3 type  1   force =     0.00000000    0.00211636   -0.01632848
     atom    4 type  2   force =     0.00000000    0.00003268    0.13979390

     Total force =     0.198954     Total SCF correction =     0.000351

     BFGS Geometry Optimization

     number of scf cycles    =   1
     number of bfgs steps    =   0

     energy   new            =     -25.0436120180 Ry

     new trust radius        =       0.1397939046 bohr

     The maximum number of steps has been reached.

     End of BFGS Geometry Optimization

ATOMIC_POSITIONS (crystal)
H            -0.0000022068       -0.0000022068       -0.0041046939
Si           -0.0001853920       -0.0001853920        0.0754757733
Si            0.3331847456        0.3331847456        0.1105200699
H             0.3330028531        0.3330028531        0.1901088506



     Writing output data file /home/jesus/Documentos/Nanociencia_DFT/silicano.save/
     NEW-OLD atomic charge density approx. for the potential

     negative rho (up, down):  9.013E-05 0.000E+00

     Writing output data file /home/jesus/Documentos/Nanociencia_DFT/silicano.save/
 
     init_run     :      1.64s CPU      1.90s WALL (       1 calls)
     electrons    :     16.21s CPU     17.65s WALL (       1 calls)
     update_pot   :      0.41s CPU      0.41s WALL (       1 calls)
     forces       :      0.67s CPU      0.78s WALL (       1 calls)

     Called by init_run:
     wfcinit      :      0.59s CPU      0.61s WALL (       1 calls)
     potinit      :      0.23s CPU      0.26s WALL (       1 calls)
     hinit0       :      0.63s CPU      0.71s WALL (       1 calls)

     Called by electrons:
     c_bands      :     11.70s CPU     11.95s WALL (       6 calls)
     sum_band     :      2.98s CPU      3.60s WALL (       6 calls)
     v_of_rho     :      0.59s CPU      0.62s WALL (       8 calls)
     newd         :      1.32s CPU      2.09s WALL (       8 calls)
     mix_rho      :      0.05s CPU      0.05s WALL (       6 calls)

     Called by c_bands:
     init_us_2    :      0.48s CPU      0.49s WALL (     294 calls)
     cegterg      :      9.84s CPU     10.06s WALL (     126 calls)

     Called by *egterg:
     cdiaghg      :      0.11s CPU      0.11s WALL (     703 calls)
     h_psi        :      8.95s CPU      9.16s WALL (     724 calls)
     s_psi        :      0.35s CPU      0.36s WALL (     724 calls)
     g_psi        :      0.04s CPU      0.04s WALL (     577 calls)

     Called by h_psi:
     h_psi:calbec :      0.41s CPU      0.42s WALL (     724 calls)
     vloc_psi     :      8.12s CPU      8.31s WALL (     724 calls)
     add_vuspsi   :      0.38s CPU      0.38s WALL (     724 calls)

     General routines
     calbec       :      0.57s CPU      0.58s WALL (     934 calls)
     fft          :      0.19s CPU      0.26s WALL (     114 calls)
     ffts         :      0.01s CPU      0.02s WALL (      14 calls)
     fftw         :      8.25s CPU      8.45s WALL (    8522 calls)
     interpolate  :      0.03s CPU      0.03s WALL (       8 calls)
     davcio       :      0.00s CPU      0.13s WALL (      21 calls)
 
     Parallel routines
 
     PWSCF        :     19.95s CPU     22.06s WALL

 
   This run was terminated on:  22:59: 4   1Apr2021            

=------------------------------------------------------------------------------=
   JOB DONE.
=------------------------------------------------------------------------------=
