
     Program PWSCF v.6.6 starts on  1Apr2021 at 22:57:44 

     This program is part of the open-source Quantum ESPRESSO suite
     for quantum simulation of materials; please cite
         "P. Giannozzi et al., J. Phys.:Condens. Matter 21 395502 (2009);
         "P. Giannozzi et al., J. Phys.:Condens. Matter 29 465901 (2017);
          URL http://www.quantum-espresso.org", 
     in publications or presentations arising from this work. More details at
     http://www.quantum-espresso.org/quote

     Parallel version (MPI), running on     1 processors

     MPI processes distributed on     1 nodes
     Fft bands division:     nmany     =       1
     Waiting for input...
     Reading input from standard input
Warning: card &CELL ignored
Warning: card   CELL_DYNAMICS='BFGS', ignored
Warning: card   CELL_DOFREE='ALL', ignored
Warning: card / ignored

     Current dimensions of program PWSCF are:
     Max number of different atomic species (ntypx) = 10
     Max number of k-points (npk) =  40000
     Max angular momentum in pseudopotentials (lmaxx) =  3

     File /home/jesus/Documentos/Nanociencia_DFT/silicano.update deleted, as requested

     File /home/jesus/Documentos/Nanociencia_DFT/silicano.bfgs deleted, as requested

     Subspace diagonalization in iterative solution of the eigenvalue problem:
     a serial algorithm will be used

     Message from routine setup:
     using ibrav=0 with symmetry is DISCOURAGED, use correct ibrav instead
 
     G-vector sticks info
     --------------------
     sticks:   dense  smooth     PW     G-vecs:    dense   smooth      PW
     Sum         517     361    121                50451    27589    5383
 


     bravais-lattice index     =            0
     lattice parameter (alat)  =       6.0471  a.u.
     unit-cell volume          =     985.0661 (a.u.)^3
     number of atoms/cell      =            4
     number of atomic types    =            2
     number of electrons       =        10.00
     number of Kohn-Sham states=            9
     kinetic-energy cutoff     =      35.0000  Ry
     charge density cutoff     =     210.0000  Ry
     convergence threshold     =      1.0E-06
     mixing beta               =       0.7000
     number of iterations used =            8  plain     mixing
     Exchange-correlation= PBE
                           (   1   4   3   4   0   0   0)
     nstep                     =            1


     celldm(1)=   6.047124  celldm(2)=   0.000000  celldm(3)=   0.000000
     celldm(4)=   0.000000  celldm(5)=   0.000000  celldm(6)=   0.000000

     crystal axes: (cart. coord. in units of alat)
               a(1) = (   0.500000   0.866000   0.000000 )  
               a(2) = (  -0.500000   0.866000   0.000000 )  
               a(3) = (   0.000000   0.000000   5.144000 )  

     reciprocal axes: (cart. coord. in units 2 pi/alat)
               b(1) = (  1.000000  0.577367  0.000000 )  
               b(2) = ( -1.000000  0.577367  0.000000 )  
               b(3) = (  0.000000  0.000000  0.194401 )  


     PseudoPot. # 1 for Si read from file:
     /home/jesus/Nanociencia_DFT/pseudopotenciales/Si.pbe-n-rrkjus_psl.1.0.0.UPF
     MD5 check sum: fa25574f73a70a4139f2adfbefec430c
     Pseudo is Ultrasoft + core correction, Zval =  4.0
     Generated using "atomic" code by A. Dal Corso v.6.3
     Using radial grid of 1141 points,  6 beta functions with: 
                l(1) =   0
                l(2) =   0
                l(3) =   1
                l(4) =   1
                l(5) =   2
                l(6) =   2
     Q(r) pseudized with 0 coefficients 


     PseudoPot. # 2 for H  read from file:
     /home/jesus/Nanociencia_DFT/pseudopotenciales/H.pbe-rrkjus_psl.1.0.0.UPF
     MD5 check sum: 3f4114867bd07edc7f1424d066fc1888
     Pseudo is Ultrasoft, Zval =  1.0
     Generated using "atomic" code by A. Dal Corso v.6.3MaX
     Using radial grid of  929 points,  2 beta functions with: 
                l(1) =   0
                l(2) =   0
     Q(r) pseudized with 0 coefficients 


     atomic species   valence    mass     pseudopotential
        Si             4.00    28.08550     Si( 1.00)
        H              1.00     1.00800     H ( 1.00)

      2 Sym. Ops. (no inversion) found



   Cartesian axes

     site n.     atom                  positions (alat units)
         1           H   tau(   1) = (   0.0000000   0.0000000   0.0000000  )
         2           Si  tau(   2) = (   0.0000000   0.0000000   0.3858000  )
         3           Si  tau(   3) = (   0.0000000   0.5767560   0.5709840  )
         4           H   tau(   4) = (   0.0000000   0.5767560   0.9567840  )

     number of k points=    21  Methfessel-Paxton smearing, width (Ry)=  0.0100
                       cart. coord. in units 2pi/alat
        k(    1) = (   0.0000000   0.0000000   0.0000000), wk =   0.0312500
        k(    2) = (  -0.1250000   0.0721709   0.0000000), wk =   0.1250000
        k(    3) = (  -0.2500000   0.1443418   0.0000000), wk =   0.1250000
        k(    4) = (  -0.3750000   0.2165127   0.0000000), wk =   0.1250000
        k(    5) = (   0.5000000  -0.2886836   0.0000000), wk =   0.0625000
        k(    6) = (   0.0000000   0.1443418   0.0000000), wk =   0.0625000
        k(    7) = (  -0.1250000   0.2165127   0.0000000), wk =   0.1250000
        k(    8) = (  -0.2500000   0.2886836   0.0000000), wk =   0.1250000
        k(    9) = (   0.6250000  -0.2165127   0.0000000), wk =   0.1250000
        k(   10) = (   0.5000000  -0.1443418   0.0000000), wk =   0.1250000
        k(   11) = (   0.3750000  -0.0721709   0.0000000), wk =   0.1250000
        k(   12) = (   0.2500000   0.0000000   0.0000000), wk =   0.0625000
        k(   13) = (   0.0000000   0.2886836   0.0000000), wk =   0.0625000
        k(   14) = (  -0.1250000   0.3608545   0.0000000), wk =   0.1250000
        k(   15) = (   0.7500000  -0.1443418   0.0000000), wk =   0.1250000
        k(   16) = (   0.6250000  -0.0721709   0.0000000), wk =   0.1250000
        k(   17) = (   0.5000000   0.0000000   0.0000000), wk =   0.0625000
        k(   18) = (   0.0000000   0.4330254   0.0000000), wk =   0.0625000
        k(   19) = (   0.8750000  -0.0721709   0.0000000), wk =   0.1250000
        k(   20) = (   0.7500000   0.0000000   0.0000000), wk =   0.0625000
        k(   21) = (   0.0000000  -0.5773672   0.0000000), wk =   0.0312500

     Dense  grid:    50451 G-vectors     FFT dimensions: (  27,  27, 144)

     Smooth grid:    27589 G-vectors     FFT dimensions: (  24,  24, 120)

     Estimated max dynamical RAM per process >     191.04 MB

     Initial potential from superposition of free atoms

     starting charge    9.99886, renormalised to   10.00000

     negative rho (up, down):  5.962E-05 0.000E+00
     Starting wfcs are   10 randomized atomic wfcs

     total cpu time spent up to now is        2.7 secs

     Self-consistent Calculation

     iteration #  1     ecut=    35.00 Ry     beta= 0.70
     Davidson diagonalization with overlap
     ethr =  1.00E-02,  avg # of iterations =  5.3

     negative rho (up, down):  4.707E-05 0.000E+00

     total cpu time spent up to now is        5.6 secs

     total energy              =     -24.65785369 Ry
     estimated scf accuracy    <       0.35447190 Ry

     iteration #  2     ecut=    35.00 Ry     beta= 0.70
     Davidson diagonalization with overlap
     ethr =  3.54E-03,  avg # of iterations =  2.0

     negative rho (up, down):  7.185E-05 0.000E+00

     total cpu time spent up to now is        8.0 secs

     total energy              =     -24.69262996 Ry
     estimated scf accuracy    <       0.00708340 Ry

     iteration #  3     ecut=    35.00 Ry     beta= 0.70
     Davidson diagonalization with overlap
     c_bands:  1 eigenvalues not converged
     ethr =  7.08E-05,  avg # of iterations =  9.5

     negative rho (up, down):  8.354E-05 0.000E+00

     total cpu time spent up to now is       11.1 secs

     total energy              =     -24.69416310 Ry
     estimated scf accuracy    <       0.00038213 Ry

     iteration #  4     ecut=    35.00 Ry     beta= 0.70
     Davidson diagonalization with overlap
     ethr =  3.82E-06,  avg # of iterations =  6.4

     negative rho (up, down):  8.912E-05 0.000E+00

     total cpu time spent up to now is       13.5 secs

     total energy              =     -24.69423911 Ry
     estimated scf accuracy    <       0.00002117 Ry

     iteration #  5     ecut=    35.00 Ry     beta= 0.70
     Davidson diagonalization with overlap
     ethr =  2.12E-07,  avg # of iterations =  2.0

     negative rho (up, down):  8.932E-05 0.000E+00

     total cpu time spent up to now is       15.2 secs

     total energy              =     -24.69424098 Ry
     estimated scf accuracy    <       0.00000773 Ry

     iteration #  6     ecut=    35.00 Ry     beta= 0.70
     Davidson diagonalization with overlap
     ethr =  7.73E-08,  avg # of iterations =  1.6

     negative rho (up, down):  8.965E-05 0.000E+00

     total cpu time spent up to now is       17.0 secs

     End of self-consistent calculation

          k = 0.0000 0.0000 0.0000 (  3419 PWs)   bands (ev):

   -15.4060  -9.7344  -5.1506  -0.9966  -0.9816   1.4899   2.7193   2.9595
     2.9742

          k =-0.1250 0.0722 0.0000 (  3448 PWs)   bands (ev):

   -15.1334  -9.5506  -5.0991  -2.6723  -1.6095   1.7632   2.5146   2.7398
     3.5143

          k =-0.2500 0.1443 0.0000 (  3444 PWs)   bands (ev):

   -14.3284  -9.0983  -5.4879  -4.8082  -2.5538   1.1050   2.9157   3.3027
     3.8655

          k =-0.3750 0.2165 0.0000 (  3446 PWs)   bands (ev):

   -13.0522  -9.1996  -7.0308  -5.0772  -3.2026   0.5170   1.8385   3.9759
     4.8722

          k = 0.5000-0.2887 0.0000 (  3452 PWs)   bands (ev):

   -11.8885 -10.3575  -6.9713  -5.3356  -3.4265   0.2947   1.4195   3.8838
     5.9362

          k = 0.0000 0.1443 0.0000 (  3448 PWs)   bands (ev):

   -15.1334  -9.5506  -5.0993  -2.6791  -1.6014   1.7672   2.5157   2.7409
     3.5131

          k =-0.1250 0.2165 0.0000 (  3461 PWs)   bands (ev):

   -14.5940  -9.2245  -5.0728  -4.2886  -2.9502   2.4022   2.8577   3.3443
     3.3791

          k =-0.2500 0.2887 0.0000 (  3436 PWs)   bands (ev):

   -13.5453  -8.8891  -6.3235  -5.1419  -4.0524   2.0617   2.6770   3.7211
     4.1905

          k = 0.6250-0.2165 0.0000 (  3454 PWs)   bands (ev):

   -12.1358  -9.8038  -6.9374  -5.3345  -4.6283   1.5810   1.9537   3.9624
     4.8104

          k = 0.5000-0.1443 0.0000 (  3454 PWs)   bands (ev):

   -12.1364  -9.8026  -6.9380  -5.3335  -4.6292   1.5819   1.9533   3.9598
     4.8111

          k = 0.3750-0.0722 0.0000 (  3436 PWs)   bands (ev):

   -13.5458  -8.8885  -6.3222  -5.1407  -4.0555   2.0637   2.6786   3.7144
     4.1891

          k = 0.2500 0.0000 0.0000 (  3461 PWs)   bands (ev):

   -14.5943  -9.2245  -5.0726  -4.2813  -2.9588   2.4033   2.8546   3.3388
     3.3799

          k = 0.0000 0.2887 0.0000 (  3444 PWs)   bands (ev):

   -14.3280  -9.0984  -5.4895  -4.8115  -2.5482   1.1102   2.9149   3.3011
     3.8653

          k =-0.1250 0.3609 0.0000 (  3436 PWs)   bands (ev):

   -13.5449  -8.8898  -6.3243  -5.1431  -4.0501   2.0673   2.6779   3.7167
     4.1903

          k = 0.7500-0.1443 0.0000 (  3436 PWs)   bands (ev):

   -12.3092  -9.2386  -6.4747  -6.3508  -5.0016   2.0113   2.8903   4.0241
     4.9655

          k = 0.6250-0.0722 0.0000 (  3426 PWs)   bands (ev):

   -11.1261 -10.1909  -7.1264  -5.8968  -5.5041   1.5823   3.3975   3.4970
     5.4674

          k = 0.5000 0.0000 0.0000 (  3436 PWs)   bands (ev):

   -12.3108  -9.2345  -6.4786  -6.3502  -5.0004   2.0095   2.8919   4.0221
     4.9579

          k = 0.0000 0.4330 0.0000 (  3446 PWs)   bands (ev):

   -13.0507  -9.2028  -7.0293  -5.0812  -3.1979   0.5208   1.8407   3.9714
     4.8728

          k = 0.8750-0.0722 0.0000 (  3454 PWs)   bands (ev):

   -12.1330  -9.8091  -6.9339  -5.3389  -4.6255   1.5860   1.9567   3.9570
     4.8099

          k = 0.7500 0.0000 0.0000 (  3426 PWs)   bands (ev):

   -11.1202 -10.1992  -7.1233  -5.8931  -5.5090   1.5847   3.3959   3.4985
     5.4693

          k = 0.0000-0.5774 0.0000 (  3452 PWs)   bands (ev):

   -11.8825 -10.3663  -6.9664  -5.3423  -3.4221   0.2974   1.4246   3.8767
     5.9381

     the Fermi energy is    -0.8738 ev

!    total energy              =     -24.69424253 Ry
     estimated scf accuracy    <       0.00000032 Ry
     smearing contrib. (-TS)   =       0.00001832 Ry
     internal energy E=F+TS    =     -24.69426085 Ry

     The total energy is F=E-TS. E is the sum of the following terms:
     one-electron contribution =    -127.81476490 Ry
     hartree contribution      =      65.90187336 Ry
     xc contribution           =     -14.54704829 Ry
     ewald contribution        =      51.76567897 Ry

     convergence has been achieved in   6 iterations

     negative rho (up, down):  8.965E-05 0.000E+00

     Forces acting on atoms (cartesian axes, Ry/au):

     atom    1 type  2   force =     0.00000000   -0.00004400   -0.32539693
     atom    2 type  1   force =     0.00000000   -0.00331317    0.01159370
     atom    3 type  1   force =     0.00000000    0.00330809   -0.01176260
     atom    4 type  2   force =     0.00000000    0.00004908    0.32556583

     Total force =     0.460620     Total SCF correction =     0.000803

     BFGS Geometry Optimization

     number of scf cycles    =   1
     number of bfgs steps    =   0

     energy   new            =     -24.6942425313 Ry

     new trust radius        =       0.3255658324 bohr

     The maximum number of steps has been reached.

     End of BFGS Geometry Optimization

ATOMIC_POSITIONS (crystal)
H            -0.0000042008       -0.0000042008       -0.0104607699
Si           -0.0003163350       -0.0003163350        0.0753727111
Si            0.3333158493        0.3333158493        0.1106218592
H             0.3330046864        0.3330046864        0.1964661995



     Writing output data file /home/jesus/Documentos/Nanociencia_DFT/silicano.save/
     NEW-OLD atomic charge density approx. for the potential

     negative rho (up, down):  7.438E-05 0.000E+00

     Writing output data file /home/jesus/Documentos/Nanociencia_DFT/silicano.save/
 
     init_run     :      1.38s CPU      1.56s WALL (       1 calls)
     electrons    :     13.31s CPU     14.28s WALL (       1 calls)
     update_pot   :      0.31s CPU      0.31s WALL (       1 calls)
     forces       :      0.49s CPU      0.56s WALL (       1 calls)

     Called by init_run:
     wfcinit      :      0.58s CPU      0.62s WALL (       1 calls)
     potinit      :      0.14s CPU      0.16s WALL (       1 calls)
     hinit0       :      0.48s CPU      0.52s WALL (       1 calls)

     Called by electrons:
     c_bands      :      9.93s CPU     10.04s WALL (       6 calls)
     sum_band     :      2.16s CPU      2.58s WALL (       6 calls)
     v_of_rho     :      0.38s CPU      0.40s WALL (       8 calls)
     newd         :      1.11s CPU      1.67s WALL (       8 calls)
     mix_rho      :      0.04s CPU      0.04s WALL (       6 calls)

     Called by c_bands:
     init_us_2    :      0.38s CPU      0.39s WALL (     294 calls)
     cegterg      :      8.39s CPU      8.49s WALL (     126 calls)

     Called by *egterg:
     cdiaghg      :      0.11s CPU      0.11s WALL (     689 calls)
     h_psi        :      7.71s CPU      7.84s WALL (     710 calls)
     s_psi        :      0.30s CPU      0.30s WALL (     710 calls)
     g_psi        :      0.03s CPU      0.03s WALL (     563 calls)

     Called by h_psi:
     h_psi:calbec :      0.33s CPU      0.34s WALL (     710 calls)
     vloc_psi     :      7.01s CPU      7.13s WALL (     710 calls)
     add_vuspsi   :      0.33s CPU      0.34s WALL (     710 calls)

     General routines
     calbec       :      0.45s CPU      0.46s WALL (     920 calls)
     fft          :      0.15s CPU      0.18s WALL (     114 calls)
     ffts         :      0.01s CPU      0.01s WALL (      14 calls)
     fftw         :      6.88s CPU      6.99s WALL (    8410 calls)
     interpolate  :      0.02s CPU      0.02s WALL (       8 calls)
     davcio       :      0.00s CPU      0.05s WALL (      21 calls)
 
     Parallel routines
 
     PWSCF        :     16.60s CPU     18.11s WALL

 
   This run was terminated on:  22:58: 2   1Apr2021            

=------------------------------------------------------------------------------=
   JOB DONE.
=------------------------------------------------------------------------------=
