
     Program PWSCF v.6.6 starts on  1Apr2021 at 23:50:28 

     This program is part of the open-source Quantum ESPRESSO suite
     for quantum simulation of materials; please cite
         "P. Giannozzi et al., J. Phys.:Condens. Matter 21 395502 (2009);
         "P. Giannozzi et al., J. Phys.:Condens. Matter 29 465901 (2017);
          URL http://www.quantum-espresso.org", 
     in publications or presentations arising from this work. More details at
     http://www.quantum-espresso.org/quote

     Parallel version (MPI), running on     1 processors

     MPI processes distributed on     1 nodes
     Fft bands division:     nmany     =       1
     Waiting for input...
     Reading input from standard input
Warning: card &CELL ignored
Warning: card   CELL_DYNAMICS='BFGS', ignored
Warning: card   CELL_DOFREE='ALL', ignored
Warning: card / ignored

     Current dimensions of program PWSCF are:
     Max number of different atomic species (ntypx) = 10
     Max number of k-points (npk) =  40000
     Max angular momentum in pseudopotentials (lmaxx) =  3

     File /home/jesus/Documentos/Nanociencia_DFT/silicano.update deleted, as requested

     File /home/jesus/Documentos/Nanociencia_DFT/silicano.bfgs deleted, as requested

     Subspace diagonalization in iterative solution of the eigenvalue problem:
     a serial algorithm will be used

     Message from routine setup:
     using ibrav=0 with symmetry is DISCOURAGED, use correct ibrav instead
 
     G-vector sticks info
     --------------------
     sticks:   dense  smooth     PW     G-vecs:    dense   smooth      PW
     Sum         769     511    163                90331    49229    8823
 


     bravais-lattice index     =            0
     lattice parameter (alat)  =       7.3416  a.u.
     unit-cell volume          =    1762.7411 (a.u.)^3
     number of atoms/cell      =            4
     number of atomic types    =            2
     number of electrons       =        10.00
     number of Kohn-Sham states=            9
     kinetic-energy cutoff     =      35.0000  Ry
     charge density cutoff     =     210.0000  Ry
     convergence threshold     =      1.0E-06
     mixing beta               =       0.7000
     number of iterations used =            8  plain     mixing
     Exchange-correlation= PBE
                           (   1   4   3   4   0   0   0)
     nstep                     =            1


     celldm(1)=   7.341586  celldm(2)=   0.000000  celldm(3)=   0.000000
     celldm(4)=   0.000000  celldm(5)=   0.000000  celldm(6)=   0.000000

     crystal axes: (cart. coord. in units of alat)
               a(1) = (   0.500000   0.866000   0.000000 )  
               a(2) = (  -0.500000   0.866000   0.000000 )  
               a(3) = (   0.000000   0.000000   5.144000 )  

     reciprocal axes: (cart. coord. in units 2 pi/alat)
               b(1) = (  1.000000  0.577367  0.000000 )  
               b(2) = ( -1.000000  0.577367  0.000000 )  
               b(3) = (  0.000000  0.000000  0.194401 )  


     PseudoPot. # 1 for Si read from file:
     /home/jesus/Nanociencia_DFT/pseudopotenciales/Si.pbe-n-rrkjus_psl.1.0.0.UPF
     MD5 check sum: fa25574f73a70a4139f2adfbefec430c
     Pseudo is Ultrasoft + core correction, Zval =  4.0
     Generated using "atomic" code by A. Dal Corso v.6.3
     Using radial grid of 1141 points,  6 beta functions with: 
                l(1) =   0
                l(2) =   0
                l(3) =   1
                l(4) =   1
                l(5) =   2
                l(6) =   2
     Q(r) pseudized with 0 coefficients 


     PseudoPot. # 2 for H  read from file:
     /home/jesus/Nanociencia_DFT/pseudopotenciales/H.pbe-rrkjus_psl.1.0.0.UPF
     MD5 check sum: 3f4114867bd07edc7f1424d066fc1888
     Pseudo is Ultrasoft, Zval =  1.0
     Generated using "atomic" code by A. Dal Corso v.6.3MaX
     Using radial grid of  929 points,  2 beta functions with: 
                l(1) =   0
                l(2) =   0
     Q(r) pseudized with 0 coefficients 


     atomic species   valence    mass     pseudopotential
        Si             4.00    28.08550     Si( 1.00)
        H              1.00     1.00800     H ( 1.00)

      2 Sym. Ops. (no inversion) found



   Cartesian axes

     site n.     atom                  positions (alat units)
         1           H   tau(   1) = (   0.0000000   0.0000000   0.0000000  )
         2           Si  tau(   2) = (   0.0000000   0.0000000   0.3858000  )
         3           Si  tau(   3) = (   0.0000000   0.5767560   0.5709840  )
         4           H   tau(   4) = (   0.0000000   0.5767560   0.9567840  )

     number of k points=    21  Methfessel-Paxton smearing, width (Ry)=  0.0100
                       cart. coord. in units 2pi/alat
        k(    1) = (   0.0000000   0.0000000   0.0000000), wk =   0.0312500
        k(    2) = (  -0.1250000   0.0721709   0.0000000), wk =   0.1250000
        k(    3) = (  -0.2500000   0.1443418   0.0000000), wk =   0.1250000
        k(    4) = (  -0.3750000   0.2165127   0.0000000), wk =   0.1250000
        k(    5) = (   0.5000000  -0.2886836   0.0000000), wk =   0.0625000
        k(    6) = (   0.0000000   0.1443418   0.0000000), wk =   0.0625000
        k(    7) = (  -0.1250000   0.2165127   0.0000000), wk =   0.1250000
        k(    8) = (  -0.2500000   0.2886836   0.0000000), wk =   0.1250000
        k(    9) = (   0.6250000  -0.2165127   0.0000000), wk =   0.1250000
        k(   10) = (   0.5000000  -0.1443418   0.0000000), wk =   0.1250000
        k(   11) = (   0.3750000  -0.0721709   0.0000000), wk =   0.1250000
        k(   12) = (   0.2500000   0.0000000   0.0000000), wk =   0.0625000
        k(   13) = (   0.0000000   0.2886836   0.0000000), wk =   0.0625000
        k(   14) = (  -0.1250000   0.3608545   0.0000000), wk =   0.1250000
        k(   15) = (   0.7500000  -0.1443418   0.0000000), wk =   0.1250000
        k(   16) = (   0.6250000  -0.0721709   0.0000000), wk =   0.1250000
        k(   17) = (   0.5000000   0.0000000   0.0000000), wk =   0.0625000
        k(   18) = (   0.0000000   0.4330254   0.0000000), wk =   0.0625000
        k(   19) = (   0.8750000  -0.0721709   0.0000000), wk =   0.1250000
        k(   20) = (   0.7500000   0.0000000   0.0000000), wk =   0.0625000
        k(   21) = (   0.0000000  -0.5773672   0.0000000), wk =   0.0312500

     Dense  grid:    90331 G-vectors     FFT dimensions: (  36,  36, 180)

     Smooth grid:    49229 G-vectors     FFT dimensions: (  27,  27, 144)

     Estimated max dynamical RAM per process >     343.32 MB

     Initial potential from superposition of free atoms

     starting charge    9.99886, renormalised to   10.00000

     negative rho (up, down):  1.005E-04 0.000E+00
     Starting wfcs are   10 randomized atomic wfcs

     total cpu time spent up to now is        3.0 secs

     Self-consistent Calculation

     iteration #  1     ecut=    35.00 Ry     beta= 0.70
     Davidson diagonalization with overlap
     ethr =  1.00E-02,  avg # of iterations =  3.5

     negative rho (up, down):  8.125E-05 0.000E+00

     total cpu time spent up to now is        7.0 secs

     total energy              =     -25.15074271 Ry
     estimated scf accuracy    <       0.16606127 Ry

     iteration #  2     ecut=    35.00 Ry     beta= 0.70
     Davidson diagonalization with overlap
     ethr =  1.66E-03,  avg # of iterations =  1.3

     negative rho (up, down):  9.770E-05 0.000E+00

     total cpu time spent up to now is       10.1 secs

     total energy              =     -25.16061810 Ry
     estimated scf accuracy    <       0.00463552 Ry

     iteration #  3     ecut=    35.00 Ry     beta= 0.70
     Davidson diagonalization with overlap
     c_bands:  1 eigenvalues not converged
     ethr =  4.64E-05,  avg # of iterations =  8.7

     negative rho (up, down):  9.978E-05 0.000E+00

     total cpu time spent up to now is       15.0 secs

     total energy              =     -25.16140514 Ry
     estimated scf accuracy    <       0.00025932 Ry

     iteration #  4     ecut=    35.00 Ry     beta= 0.70
     Davidson diagonalization with overlap
     ethr =  2.59E-06,  avg # of iterations =  5.1

     negative rho (up, down):  1.029E-04 0.000E+00

     total cpu time spent up to now is       18.8 secs

     total energy              =     -25.16144859 Ry
     estimated scf accuracy    <       0.00002294 Ry

     iteration #  5     ecut=    35.00 Ry     beta= 0.70
     Davidson diagonalization with overlap
     ethr =  2.29E-07,  avg # of iterations =  1.6

     negative rho (up, down):  1.030E-04 0.000E+00

     total cpu time spent up to now is       21.9 secs

     total energy              =     -25.16145127 Ry
     estimated scf accuracy    <       0.00000102 Ry

     iteration #  6     ecut=    35.00 Ry     beta= 0.70
     Davidson diagonalization with overlap
     ethr =  1.02E-08,  avg # of iterations =  2.2

     negative rho (up, down):  1.032E-04 0.000E+00

     total cpu time spent up to now is       25.3 secs

     End of self-consistent calculation

          k = 0.0000 0.0000 0.0000 (  6083 PWs)   bands (ev):

   -13.7050  -9.1413  -5.8723  -3.3801  -3.3647  -1.0328   0.5485   0.5652
     0.8011

          k =-0.1250 0.0722 0.0000 (  6106 PWs)   bands (ev):

   -13.5346  -9.1004  -5.8715  -4.5249  -3.6854  -0.4469   0.5984   1.1040
     1.1686

          k =-0.2500 0.1443 0.0000 (  6174 PWs)   bands (ev):

   -13.0371  -9.1137  -6.1353  -5.8322  -4.2358  -0.7996   1.1229   1.3922
     2.1736

          k =-0.3750 0.2165 0.0000 (  6170 PWs)   bands (ev):

   -12.2812  -9.6128  -6.8698  -5.9864  -4.6467  -1.1113   0.6562   1.3629
     3.0302

          k = 0.5000-0.2887 0.0000 (  6174 PWs)   bands (ev):

   -11.7042 -10.2126  -6.9474  -6.0887  -4.7927  -1.1853   0.2982   1.3440
     3.0434

          k = 0.0000 0.1443 0.0000 (  6106 PWs)   bands (ev):

   -13.5345  -9.1006  -5.8718  -4.5328  -3.6760  -0.4439   0.6023   1.1045
     1.1584

          k =-0.1250 0.2165 0.0000 (  6141 PWs)   bands (ev):

   -13.1996  -9.0803  -5.8971  -5.5960  -4.3467   0.2060   0.4550   1.3032
     1.6524

          k =-0.2500 0.2887 0.0000 (  6178 PWs)   bands (ev):

   -12.5618  -9.3269  -6.5553  -5.9866  -5.0445  -0.0419   1.1290   1.3027
     2.0657

          k = 0.6250-0.2165 0.0000 (  6185 PWs)   bands (ev):

   -11.7732 -10.0479  -6.8603  -6.0987  -5.4023  -0.1325   0.5298   1.3583
     2.2851

          k = 0.5000-0.1443 0.0000 (  6185 PWs)   bands (ev):

   -11.7742 -10.0462  -6.8606  -6.0973  -5.4044  -0.1314   0.5288   1.3584
     2.2846

          k = 0.3750-0.0722 0.0000 (  6178 PWs)   bands (ev):

   -12.5627  -9.3250  -6.5534  -5.9847  -5.0502  -0.0403   1.1308   1.2999
     2.0638

          k = 0.2500 0.0000 0.0000 (  6141 PWs)   bands (ev):

   -13.2001  -9.0796  -5.8964  -5.5883  -4.3568   0.2108   0.4457   1.3053
     1.6517

          k = 0.0000 0.2887 0.0000 (  6174 PWs)   bands (ev):

   -13.0362  -9.1150  -6.1402  -5.8332  -4.2290  -0.7933   1.1228   1.3913
     2.1730

          k =-0.1250 0.3609 0.0000 (  6178 PWs)   bands (ev):

   -12.5609  -9.3287  -6.5577  -5.9864  -5.0417  -0.0357   1.1297   1.3010
     2.0644

          k = 0.7500-0.1443 0.0000 (  6175 PWs)   bands (ev):

   -11.8319  -9.8858  -6.5763  -6.3663  -5.8398   0.7643   1.0588   1.8268
     2.1810

          k = 0.6250-0.0722 0.0000 (  6175 PWs)   bands (ev):

   -11.1977 -10.4773  -6.7053  -6.2668  -6.2140   0.6248   1.4055   1.4757
     2.0740

          k = 0.5000 0.0000 0.0000 (  6175 PWs)   bands (ev):

   -11.8348  -9.8805  -6.5747  -6.3660  -5.8444   0.7656   1.0585   1.8233
     2.1727

          k = 0.0000 0.4330 0.0000 (  6170 PWs)   bands (ev):

   -12.2783  -9.6183  -6.8711  -5.9883  -4.6411  -1.1053   0.6574   1.3606
     3.0296

          k = 0.8750-0.0722 0.0000 (  6185 PWs)   bands (ev):

   -11.7687 -10.0552  -6.8603  -6.1004  -5.3982  -0.1263   0.5312   1.3553
     2.2855

          k = 0.7500 0.0000 0.0000 (  6177 PWs)   bands (ev):

   -11.1907 -10.4862  -6.7056  -6.2628  -6.2160   0.6257   1.4041   1.4766
     2.0793

          k = 0.0000-0.5774 0.0000 (  6174 PWs)   bands (ev):

   -11.6969 -10.2237  -6.9464  -6.0918  -4.7875  -1.1793   0.3002   1.3405
     3.0438

     the Fermi energy is    -3.2571 ev

!    total energy              =     -25.16145147 Ry
     estimated scf accuracy    <       0.00000017 Ry
     smearing contrib. (-TS)   =       0.00001855 Ry
     internal energy E=F+TS    =     -25.16147001 Ry

     The total energy is F=E-TS. E is the sum of the following terms:
     one-electron contribution =    -110.93639037 Ry
     hartree contribution      =      56.78613091 Ry
     xc contribution           =     -13.64960764 Ry
     ewald contribution        =      42.63839709 Ry

     convergence has been achieved in   6 iterations

     negative rho (up, down):  1.032E-04 0.000E+00

     Forces acting on atoms (cartesian axes, Ry/au):

     atom    1 type  2   force =     0.00000000   -0.00001082   -0.00237534
     atom    2 type  1   force =     0.00000000   -0.00103627    0.00185577
     atom    3 type  1   force =     0.00000000    0.00103593   -0.00162143
     atom    4 type  2   force =     0.00000000    0.00001116    0.00214100

     Total force =     0.004295     Total SCF correction =     0.000718
     SCF correction compared to forces is large: reduce conv_thr to get better values

     BFGS Geometry Optimization

     number of scf cycles    =   1
     number of bfgs steps    =   0

     energy   new            =     -25.1614514680 Ry

     new trust radius        =       0.0023753613 bohr

     The maximum number of steps has been reached.

     End of BFGS Geometry Optimization

ATOMIC_POSITIONS (crystal)
H            -0.0000008507       -0.0000008507       -0.0000628976
Si           -0.0000814959       -0.0000814959        0.0750491397
Si            0.3330814691        0.3330814691        0.1109570654
H             0.3330008774        0.3330008774        0.1860566925



     Writing output data file /home/jesus/Documentos/Nanociencia_DFT/silicano.save/
     NEW-OLD atomic charge density approx. for the potential

     negative rho (up, down):  1.031E-04 0.000E+00

     Writing output data file /home/jesus/Documentos/Nanociencia_DFT/silicano.save/
 
     init_run     :      1.95s CPU      2.14s WALL (       1 calls)
     electrons    :     20.92s CPU     22.29s WALL (       1 calls)
     update_pot   :      0.55s CPU      0.55s WALL (       1 calls)
     forces       :      0.87s CPU      0.99s WALL (       1 calls)

     Called by init_run:
     wfcinit      :      0.82s CPU      0.83s WALL (       1 calls)
     potinit      :      0.28s CPU      0.31s WALL (       1 calls)
     hinit0       :      0.56s CPU      0.58s WALL (       1 calls)

     Called by electrons:
     c_bands      :     14.78s CPU     14.83s WALL (       6 calls)
     sum_band     :      4.06s CPU      4.70s WALL (       6 calls)
     v_of_rho     :      0.81s CPU      0.87s WALL (       8 calls)
     newd         :      1.78s CPU      2.62s WALL (       8 calls)
     mix_rho      :      0.08s CPU      0.08s WALL (       6 calls)

     Called by c_bands:
     init_us_2    :      0.60s CPU      0.61s WALL (     294 calls)
     cegterg      :     12.35s CPU     12.39s WALL (     126 calls)

     Called by *egterg:
     cdiaghg      :      0.09s CPU      0.09s WALL (     595 calls)
     h_psi        :     11.41s CPU     11.45s WALL (     616 calls)
     s_psi        :      0.45s CPU      0.45s WALL (     616 calls)
     g_psi        :      0.05s CPU      0.05s WALL (     469 calls)

     Called by h_psi:
     h_psi:calbec :      0.49s CPU      0.49s WALL (     616 calls)
     vloc_psi     :     10.40s CPU     10.44s WALL (     616 calls)
     add_vuspsi   :      0.46s CPU      0.46s WALL (     616 calls)

     General routines
     calbec       :      0.70s CPU      0.71s WALL (     826 calls)
     fft          :      0.35s CPU      0.37s WALL (     114 calls)
     ffts         :      0.02s CPU      0.02s WALL (      14 calls)
     fftw         :     10.55s CPU     10.60s WALL (    8254 calls)
     interpolate  :      0.04s CPU      0.05s WALL (       8 calls)
     davcio       :      0.00s CPU      0.01s WALL (      21 calls)
 
     Parallel routines
 
     PWSCF        :     25.38s CPU     27.18s WALL

 
   This run was terminated on:  23:50:56   1Apr2021            

=------------------------------------------------------------------------------=
   JOB DONE.
=------------------------------------------------------------------------------=
