
     Program PWSCF v.6.6 starts on 31Mar2021 at 17: 7:25 

     This program is part of the open-source Quantum ESPRESSO suite
     for quantum simulation of materials; please cite
         "P. Giannozzi et al., J. Phys.:Condens. Matter 21 395502 (2009);
         "P. Giannozzi et al., J. Phys.:Condens. Matter 29 465901 (2017);
          URL http://www.quantum-espresso.org", 
     in publications or presentations arising from this work. More details at
     http://www.quantum-espresso.org/quote

     Parallel version (MPI), running on     1 processors

     MPI processes distributed on     1 nodes
     Fft bands division:     nmany     =       1
     Waiting for input...
     Reading input from standard input
Warning: card &CELL ignored
Warning: card   CELL_DYNAMICS='BFGS', ignored
Warning: card   CELL_DOFREE='ALL', ignored
Warning: card / ignored

     Current dimensions of program PWSCF are:
     Max number of different atomic species (ntypx) = 10
     Max number of k-points (npk) =  40000
     Max angular momentum in pseudopotentials (lmaxx) =  3

     File /home/jesus/Documentos/Nanociencia_DFT/silicano.update deleted, as requested

     File /home/jesus/Documentos/Nanociencia_DFT/silicano.bfgs deleted, as requested
     file H.pbe-kjpaw_psl.1.0.0.UPF: wavefunction(s)  1S renormalized

     Subspace diagonalization in iterative solution of the eigenvalue problem:
     a serial algorithm will be used

     Message from routine setup:
     using ibrav=0 with symmetry is DISCOURAGED, use correct ibrav instead
 
     G-vector sticks info
     --------------------
     sticks:   dense  smooth     PW     G-vecs:    dense   smooth      PW
     Sum         703     475    151                78143    42613    7787
 


     bravais-lattice index     =            0
     lattice parameter (alat)  =       6.9920  a.u.
     unit-cell volume          =    1522.7220 (a.u.)^3
     number of atoms/cell      =            4
     number of atomic types    =            2
     number of electrons       =        10.00
     number of Kohn-Sham states=            9
     kinetic-energy cutoff     =      35.0000  Ry
     charge density cutoff     =     210.0000  Ry
     convergence threshold     =      1.0E-06
     mixing beta               =       0.7000
     number of iterations used =            8  plain     mixing
     Exchange-correlation= SLA PW PBX PBC
                           (   1   4   3   4   0   0   0)
     nstep                     =            1


     celldm(1)=   6.991987  celldm(2)=   0.000000  celldm(3)=   0.000000
     celldm(4)=   0.000000  celldm(5)=   0.000000  celldm(6)=   0.000000

     crystal axes: (cart. coord. in units of alat)
               a(1) = (   0.500000   0.866000   0.000000 )  
               a(2) = (  -0.500000   0.866000   0.000000 )  
               a(3) = (   0.000000   0.000000   5.144000 )  

     reciprocal axes: (cart. coord. in units 2 pi/alat)
               b(1) = (  1.000000  0.577367  0.000000 )  
               b(2) = ( -1.000000  0.577367  0.000000 )  
               b(3) = (  0.000000  0.000000  0.194401 )  


     PseudoPot. # 1 for Si read from file:
     /home/jesus/Nanociencia_DFT/pseudopotenciales/Si.pbe-n-rrkjus_psl.1.0.0.UPF
     MD5 check sum: fa25574f73a70a4139f2adfbefec430c
     Pseudo is Ultrasoft + core correction, Zval =  4.0
     Generated using "atomic" code by A. Dal Corso v.6.3
     Using radial grid of 1141 points,  6 beta functions with: 
                l(1) =   0
                l(2) =   0
                l(3) =   1
                l(4) =   1
                l(5) =   2
                l(6) =   2
     Q(r) pseudized with 0 coefficients 


     PseudoPot. # 2 for H  read from file:
     /home/jesus/Nanociencia_DFT/pseudopotenciales/H.pbe-kjpaw_psl.1.0.0.UPF
     MD5 check sum: d81a744832360e4a8af0b0b5b123bc2a
     Pseudo is Projector augmented-wave, Zval =  1.0
     Generated using "atomic" code by A. Dal Corso v.6.3MaX
     Shape of augmentation charge: PSQ
     Using radial grid of  929 points,  2 beta functions with: 
                l(1) =   0
                l(2) =   0
     Q(r) pseudized with 0 coefficients 


     atomic species   valence    mass     pseudopotential
        Si             4.00    28.08550     Si( 1.00)
        H              1.00     1.00800     H ( 1.00)

      2 Sym. Ops. (no inversion) found



   Cartesian axes

     site n.     atom                  positions (alat units)
         1           H   tau(   1) = (   0.0000000   0.0000000   0.0000000  )
         2           Si  tau(   2) = (   0.0000000   0.0000000   0.3858000  )
         3           Si  tau(   3) = (   0.0000000   0.5767560   0.5709840  )
         4           H   tau(   4) = (   0.0000000   0.5767560   0.9567840  )

     number of k points=    21  Methfessel-Paxton smearing, width (Ry)=  0.0100
                       cart. coord. in units 2pi/alat
        k(    1) = (   0.0000000   0.0000000   0.0000000), wk =   0.0312500
        k(    2) = (  -0.1250000   0.0721709   0.0000000), wk =   0.1250000
        k(    3) = (  -0.2500000   0.1443418   0.0000000), wk =   0.1250000
        k(    4) = (  -0.3750000   0.2165127   0.0000000), wk =   0.1250000
        k(    5) = (   0.5000000  -0.2886836   0.0000000), wk =   0.0625000
        k(    6) = (   0.0000000   0.1443418   0.0000000), wk =   0.0625000
        k(    7) = (  -0.1250000   0.2165127   0.0000000), wk =   0.1250000
        k(    8) = (  -0.2500000   0.2886836   0.0000000), wk =   0.1250000
        k(    9) = (   0.6250000  -0.2165127   0.0000000), wk =   0.1250000
        k(   10) = (   0.5000000  -0.1443418   0.0000000), wk =   0.1250000
        k(   11) = (   0.3750000  -0.0721709   0.0000000), wk =   0.1250000
        k(   12) = (   0.2500000   0.0000000   0.0000000), wk =   0.0625000
        k(   13) = (   0.0000000   0.2886836   0.0000000), wk =   0.0625000
        k(   14) = (  -0.1250000   0.3608545   0.0000000), wk =   0.1250000
        k(   15) = (   0.7500000  -0.1443418   0.0000000), wk =   0.1250000
        k(   16) = (   0.6250000  -0.0721709   0.0000000), wk =   0.1250000
        k(   17) = (   0.5000000   0.0000000   0.0000000), wk =   0.0625000
        k(   18) = (   0.0000000   0.4330254   0.0000000), wk =   0.0625000
        k(   19) = (   0.8750000  -0.0721709   0.0000000), wk =   0.1250000
        k(   20) = (   0.7500000   0.0000000   0.0000000), wk =   0.0625000
        k(   21) = (   0.0000000  -0.5773672   0.0000000), wk =   0.0312500

     Dense  grid:    78143 G-vectors     FFT dimensions: (  36,  36, 180)

     Smooth grid:    42613 G-vectors     FFT dimensions: (  27,  27, 135)

     Estimated max dynamical RAM per process >     299.44 MB

     Initial potential from superposition of free atoms

     starting charge    9.99886, renormalised to   10.00000

     negative rho (up, down):  8.562E-05 0.000E+00
     Starting wfcs are   10 randomized atomic wfcs
     Checking if some PAW data can be deallocated... 

     total cpu time spent up to now is        3.0 secs

     Self-consistent Calculation

     iteration #  1     ecut=    35.00 Ry     beta= 0.70
     Davidson diagonalization with overlap
     ethr =  1.00E-02,  avg # of iterations =  4.3

     negative rho (up, down):  6.930E-05 0.000E+00

     total cpu time spent up to now is        7.4 secs

     total energy              =     -25.12353909 Ry
     estimated scf accuracy    <       0.20196282 Ry

     iteration #  2     ecut=    35.00 Ry     beta= 0.70
     Davidson diagonalization with overlap
     ethr =  2.02E-03,  avg # of iterations =  1.9

     negative rho (up, down):  8.692E-05 0.000E+00

     total cpu time spent up to now is       10.7 secs

     total energy              =     -25.13660527 Ry
     estimated scf accuracy    <       0.00435787 Ry

     iteration #  3     ecut=    35.00 Ry     beta= 0.70
     Davidson diagonalization with overlap
     c_bands:  1 eigenvalues not converged
     ethr =  4.36E-05,  avg # of iterations =  9.3

     negative rho (up, down):  9.237E-05 0.000E+00

     total cpu time spent up to now is       16.0 secs

     total energy              =     -25.13738256 Ry
     estimated scf accuracy    <       0.00017150 Ry

     iteration #  4     ecut=    35.00 Ry     beta= 0.70
     Davidson diagonalization with overlap
     c_bands:  2 eigenvalues not converged
     c_bands:  1 eigenvalues not converged
     ethr =  1.71E-06,  avg # of iterations =  7.4

     negative rho (up, down):  9.302E-05 0.000E+00

     total cpu time spent up to now is       20.8 secs

     total energy              =     -25.13740751 Ry
     estimated scf accuracy    <       0.00001608 Ry

     iteration #  5     ecut=    35.00 Ry     beta= 0.70
     Davidson diagonalization with overlap
     ethr =  1.61E-07,  avg # of iterations =  2.1

     negative rho (up, down):  9.331E-05 0.000E+00

     total cpu time spent up to now is       24.4 secs

     total energy              =     -25.13740902 Ry
     estimated scf accuracy    <       0.00000167 Ry

     iteration #  6     ecut=    35.00 Ry     beta= 0.70
     Davidson diagonalization with overlap
     ethr =  1.67E-08,  avg # of iterations =  2.0

     negative rho (up, down):  9.381E-05 0.000E+00

     total cpu time spent up to now is       27.8 secs

     End of self-consistent calculation

          k = 0.0000 0.0000 0.0000 (  5383 PWs)   bands (ev):

   -14.1077  -9.2536  -5.7290  -2.9522  -2.9359  -0.2847   1.0893   1.1062
     1.2485

          k =-0.1250 0.0722 0.0000 (  5369 PWs)   bands (ev):

   -13.9149  -9.1779  -5.7210  -4.1870  -3.3151   0.1348   1.0840   1.6094
     1.8133

          k =-0.2500 0.1443 0.0000 (  5333 PWs)   bands (ev):

   -13.3501  -9.0859  -6.0473  -5.6535  -3.9497  -0.3492   1.5931   1.8285
     2.5547

          k =-0.3750 0.2165 0.0000 (  5310 PWs)   bands (ev):

   -12.4824  -9.5384  -6.9383  -5.8290  -4.4148  -0.7115   0.9489   1.9534
     3.2356

          k = 0.5000-0.2887 0.0000 (  5306 PWs)   bands (ev):

   -11.7950 -10.2416  -6.9998  -5.9588  -4.5789  -0.8004   0.5646   1.9058
     3.7250

          k = 0.0000 0.1443 0.0000 (  5369 PWs)   bands (ev):

   -13.9148  -9.1780  -5.7212  -4.1953  -3.3054   0.1389   1.0865   1.6090
     1.8044

          k =-0.1250 0.2165 0.0000 (  5357 PWs)   bands (ev):

   -13.5351  -9.0860  -5.7414  -5.3882  -4.1048   0.7531   0.9968   1.8508
     1.9936

          k =-0.2500 0.2887 0.0000 (  5324 PWs)   bands (ev):

   -12.8080  -9.2287  -6.5557  -5.8397  -4.8971   0.4540   1.5330   1.8223
     2.5924

          k = 0.6250-0.2165 0.0000 (  5313 PWs)   bands (ev):

   -11.8915 -10.0111  -6.9157  -5.9696  -5.3008   0.3468   0.8302   1.9330
     2.8601

          k = 0.5000-0.1443 0.0000 (  5313 PWs)   bands (ev):

   -11.8924 -10.0094  -6.9162  -5.9679  -5.3030   0.3487   0.8285   1.9325
     2.8597

          k = 0.3750-0.0722 0.0000 (  5324 PWs)   bands (ev):

   -12.8089  -9.2269  -6.5538  -5.8376  -4.9029   0.4559   1.5356   1.8164
     2.5911

          k = 0.2500 0.0000 0.0000 (  5357 PWs)   bands (ev):

   -13.5356  -9.0854  -5.7407  -5.3799  -4.1155   0.7568   0.9881   1.8529
     1.9924

          k = 0.0000 0.2887 0.0000 (  5333 PWs)   bands (ev):

   -13.3493  -9.0869  -6.0523  -5.6548  -3.9427  -0.3428   1.5932   1.8265
     2.5534

          k =-0.1250 0.3609 0.0000 (  5324 PWs)   bands (ev):

   -12.8072  -9.2303  -6.5581  -5.8395  -4.8942   0.4603   1.5344   1.8176
     2.5925

          k = 0.7500-0.1443 0.0000 (  5321 PWs)   bands (ev):

   -11.9709  -9.7821  -6.5653  -6.4069  -5.7282   1.0601   1.5281   2.3251
     2.7339

          k = 0.6250-0.0722 0.0000 (  5308 PWs)   bands (ev):

   -11.2312 -10.4471  -6.8140  -6.2502  -6.1019   0.8638   1.8758   1.9526
     2.8771

          k = 0.5000 0.0000 0.0000 (  5321 PWs)   bands (ev):

   -11.9737  -9.7768  -6.5637  -6.4082  -5.7313   1.0607   1.5291   2.3213
     2.7253

          k = 0.0000 0.4330 0.0000 (  5310 PWs)   bands (ev):

   -12.4797  -9.5438  -6.9392  -5.8314  -4.4091  -0.7056   0.9501   1.9501
     3.7830

          k = 0.8750-0.0722 0.0000 (  5313 PWs)   bands (ev):

   -11.8871 -10.0185  -6.9150  -5.9717  -5.2968   0.3532   0.8319   1.9285
     2.8607

          k = 0.7500 0.0000 0.0000 (  5308 PWs)   bands (ev):

   -11.2240 -10.4565  -6.8132  -6.2465  -6.1045   0.8650   1.8750   1.9537
     2.8811

          k = 0.0000-0.5774 0.0000 (  5310 PWs)   bands (ev):

   -11.7875 -10.2530  -6.9978  -5.9627  -4.5736  -0.7949   0.5672   1.9009
     3.7259

     the Fermi energy is    -1.7058 ev

!    total energy              =     -25.13740916 Ry
     estimated scf accuracy    <       0.00000050 Ry
     smearing contrib. (-TS)   =       0.00000000 Ry
     internal energy E=F+TS    =     -25.13740916 Ry

     The total energy is F=E-TS. E is the sum of the following terms:
     one-electron contribution =    -115.02642667 Ry
     hartree contribution      =      58.97230701 Ry
     xc contribution           =     -13.85332854 Ry
     ewald contribution        =      44.77031694 Ry
     one-center paw contrib.   =      -0.00027791 Ry

     convergence has been achieved in   6 iterations

     negative rho (up, down):  9.381E-05 0.000E+00

     Forces acting on atoms (cartesian axes, Ry/au):

     atom    1 type  2   force =     0.00000000   -0.00001691   -0.05730920
     atom    2 type  1   force =     0.00000000   -0.00153714    0.01002094
     atom    3 type  1   force =     0.00000000    0.00153433   -0.01015184
     atom    4 type  2   force =     0.00000000    0.00001973    0.05744011

     Total force =     0.082413     Total SCF correction =     0.001329

     BFGS Geometry Optimization

     number of scf cycles    =   1
     number of bfgs steps    =   0

     energy   new            =     -25.1374091591 Ry

     new trust radius        =       0.0574401138 bohr

     The maximum number of steps has been reached.

     End of BFGS Geometry Optimization

ATOMIC_POSITIONS (crystal)
H            -0.0000013967       -0.0000013967       -0.0015933927
Si           -0.0001269301       -0.0001269301        0.0752786164
Si            0.3331266979        0.3331266979        0.1107177439
H             0.3330016290        0.3330016290        0.1875970324



     Writing output data file /home/jesus/Documentos/Nanociencia_DFT/silicano.save/
     NEW-OLD atomic charge density approx. for the potential

     negative rho (up, down):  9.177E-05 0.000E+00

     Writing output data file /home/jesus/Documentos/Nanociencia_DFT/silicano.save/
 
     init_run     :      1.95s CPU      2.14s WALL (       1 calls)
     electrons    :     23.24s CPU     24.77s WALL (       1 calls)
     update_pot   :      0.56s CPU      0.56s WALL (       1 calls)
     forces       :      0.93s CPU      1.05s WALL (       1 calls)

     Called by init_run:
     wfcinit      :      0.92s CPU      0.94s WALL (       1 calls)
     potinit      :      0.29s CPU      0.30s WALL (       1 calls)
     hinit0       :      0.49s CPU      0.51s WALL (       1 calls)

     Called by electrons:
     c_bands      :     16.71s CPU     16.85s WALL (       6 calls)
     sum_band     :      4.14s CPU      4.80s WALL (       6 calls)
     v_of_rho     :      1.01s CPU      1.08s WALL (       8 calls)
     newd         :      2.10s CPU      3.07s WALL (       8 calls)
     PAW_pot      :      0.01s CPU      0.01s WALL (       9 calls)
     mix_rho      :      0.10s CPU      0.10s WALL (       6 calls)

     Called by c_bands:
     init_us_2    :      0.64s CPU      0.66s WALL (     315 calls)
     cegterg      :     14.36s CPU     14.47s WALL (     126 calls)

     Called by *egterg:
     cdiaghg      :      0.11s CPU      0.11s WALL (     691 calls)
     h_psi        :     13.29s CPU     13.40s WALL (     712 calls)
     s_psi        :      0.50s CPU      0.50s WALL (     712 calls)
     g_psi        :      0.05s CPU      0.05s WALL (     565 calls)

     Called by h_psi:
     h_psi:calbec :      0.53s CPU      0.53s WALL (     712 calls)
     vloc_psi     :     12.17s CPU     12.26s WALL (     712 calls)
     add_vuspsi   :      0.52s CPU      0.53s WALL (     712 calls)

     General routines
     calbec       :      0.76s CPU      0.77s WALL (     943 calls)
     fft          :      0.45s CPU      0.47s WALL (     114 calls)
     ffts         :      0.02s CPU      0.02s WALL (      14 calls)
     fftw         :     12.02s CPU     12.12s WALL (    8470 calls)
     interpolate  :      0.06s CPU      0.06s WALL (       8 calls)
     davcio       :      0.01s CPU      0.02s WALL (      21 calls)
 
     Parallel routines
 
     PWSCF        :     28.12s CPU     30.22s WALL

 
   This run was terminated on:  17: 7:55  31Mar2021            

=------------------------------------------------------------------------------=
   JOB DONE.
=------------------------------------------------------------------------------=
