
     Program PWSCF v.6.6 starts on 31Mar2021 at 17:11:39 

     This program is part of the open-source Quantum ESPRESSO suite
     for quantum simulation of materials; please cite
         "P. Giannozzi et al., J. Phys.:Condens. Matter 21 395502 (2009);
         "P. Giannozzi et al., J. Phys.:Condens. Matter 29 465901 (2017);
          URL http://www.quantum-espresso.org", 
     in publications or presentations arising from this work. More details at
     http://www.quantum-espresso.org/quote

     Parallel version (MPI), running on     1 processors

     MPI processes distributed on     1 nodes
     Fft bands division:     nmany     =       1
     Waiting for input...
     Reading input from standard input
Warning: card &CELL ignored
Warning: card   CELL_DYNAMICS='BFGS', ignored
Warning: card   CELL_DOFREE='ALL', ignored
Warning: card / ignored

     Current dimensions of program PWSCF are:
     Max number of different atomic species (ntypx) = 10
     Max number of k-points (npk) =  40000
     Max angular momentum in pseudopotentials (lmaxx) =  3

     File /home/jesus/Documentos/Nanociencia_DFT/silicano.update deleted, as requested

     File /home/jesus/Documentos/Nanociencia_DFT/silicano.bfgs deleted, as requested
     file H.pbe-kjpaw_psl.1.0.0.UPF: wavefunction(s)  1S renormalized

     Subspace diagonalization in iterative solution of the eigenvalue problem:
     a serial algorithm will be used

     Message from routine setup:
     using ibrav=0 with symmetry is DISCOURAGED, use correct ibrav instead
 
     G-vector sticks info
     --------------------
     sticks:   dense  smooth     PW     G-vecs:    dense   smooth      PW
     Sum        1003     673    199               131555    71709   12287
 


     bravais-lattice index     =            0
     lattice parameter (alat)  =       8.3148  a.u.
     unit-cell volume          =    2560.7872 (a.u.)^3
     number of atoms/cell      =            4
     number of atomic types    =            2
     number of electrons       =        10.00
     number of Kohn-Sham states=            9
     kinetic-energy cutoff     =      35.0000  Ry
     charge density cutoff     =     210.0000  Ry
     convergence threshold     =      1.0E-06
     mixing beta               =       0.7000
     number of iterations used =            8  plain     mixing
     Exchange-correlation= SLA PW PBX PBC
                           (   1   4   3   4   0   0   0)
     nstep                     =            1


     celldm(1)=   8.314795  celldm(2)=   0.000000  celldm(3)=   0.000000
     celldm(4)=   0.000000  celldm(5)=   0.000000  celldm(6)=   0.000000

     crystal axes: (cart. coord. in units of alat)
               a(1) = (   0.500000   0.866000   0.000000 )  
               a(2) = (  -0.500000   0.866000   0.000000 )  
               a(3) = (   0.000000   0.000000   5.144000 )  

     reciprocal axes: (cart. coord. in units 2 pi/alat)
               b(1) = (  1.000000  0.577367  0.000000 )  
               b(2) = ( -1.000000  0.577367  0.000000 )  
               b(3) = (  0.000000  0.000000  0.194401 )  


     PseudoPot. # 1 for Si read from file:
     /home/jesus/Nanociencia_DFT/pseudopotenciales/Si.pbe-n-rrkjus_psl.1.0.0.UPF
     MD5 check sum: fa25574f73a70a4139f2adfbefec430c
     Pseudo is Ultrasoft + core correction, Zval =  4.0
     Generated using "atomic" code by A. Dal Corso v.6.3
     Using radial grid of 1141 points,  6 beta functions with: 
                l(1) =   0
                l(2) =   0
                l(3) =   1
                l(4) =   1
                l(5) =   2
                l(6) =   2
     Q(r) pseudized with 0 coefficients 


     PseudoPot. # 2 for H  read from file:
     /home/jesus/Nanociencia_DFT/pseudopotenciales/H.pbe-kjpaw_psl.1.0.0.UPF
     MD5 check sum: d81a744832360e4a8af0b0b5b123bc2a
     Pseudo is Projector augmented-wave, Zval =  1.0
     Generated using "atomic" code by A. Dal Corso v.6.3MaX
     Shape of augmentation charge: PSQ
     Using radial grid of  929 points,  2 beta functions with: 
                l(1) =   0
                l(2) =   0
     Q(r) pseudized with 0 coefficients 


     atomic species   valence    mass     pseudopotential
        Si             4.00    28.08550     Si( 1.00)
        H              1.00     1.00800     H ( 1.00)

      2 Sym. Ops. (no inversion) found



   Cartesian axes

     site n.     atom                  positions (alat units)
         1           H   tau(   1) = (   0.0000000   0.0000000   0.0000000  )
         2           Si  tau(   2) = (   0.0000000   0.0000000   0.3858000  )
         3           Si  tau(   3) = (   0.0000000   0.5767560   0.5709840  )
         4           H   tau(   4) = (   0.0000000   0.5767560   0.9567840  )

     number of k points=    21  Methfessel-Paxton smearing, width (Ry)=  0.0100
                       cart. coord. in units 2pi/alat
        k(    1) = (   0.0000000   0.0000000   0.0000000), wk =   0.0312500
        k(    2) = (  -0.1250000   0.0721709   0.0000000), wk =   0.1250000
        k(    3) = (  -0.2500000   0.1443418   0.0000000), wk =   0.1250000
        k(    4) = (  -0.3750000   0.2165127   0.0000000), wk =   0.1250000
        k(    5) = (   0.5000000  -0.2886836   0.0000000), wk =   0.0625000
        k(    6) = (   0.0000000   0.1443418   0.0000000), wk =   0.0625000
        k(    7) = (  -0.1250000   0.2165127   0.0000000), wk =   0.1250000
        k(    8) = (  -0.2500000   0.2886836   0.0000000), wk =   0.1250000
        k(    9) = (   0.6250000  -0.2165127   0.0000000), wk =   0.1250000
        k(   10) = (   0.5000000  -0.1443418   0.0000000), wk =   0.1250000
        k(   11) = (   0.3750000  -0.0721709   0.0000000), wk =   0.1250000
        k(   12) = (   0.2500000   0.0000000   0.0000000), wk =   0.0625000
        k(   13) = (   0.0000000   0.2886836   0.0000000), wk =   0.0625000
        k(   14) = (  -0.1250000   0.3608545   0.0000000), wk =   0.1250000
        k(   15) = (   0.7500000  -0.1443418   0.0000000), wk =   0.1250000
        k(   16) = (   0.6250000  -0.0721709   0.0000000), wk =   0.1250000
        k(   17) = (   0.5000000   0.0000000   0.0000000), wk =   0.0625000
        k(   18) = (   0.0000000   0.4330254   0.0000000), wk =   0.0625000
        k(   19) = (   0.8750000  -0.0721709   0.0000000), wk =   0.1250000
        k(   20) = (   0.7500000   0.0000000   0.0000000), wk =   0.0625000
        k(   21) = (   0.0000000  -0.5773672   0.0000000), wk =   0.0312500

     Dense  grid:   131555 G-vectors     FFT dimensions: (  40,  40, 200)

     Smooth grid:    71709 G-vectors     FFT dimensions: (  32,  32, 162)

     Estimated max dynamical RAM per process >     497.49 MB

     Initial potential from superposition of free atoms

     starting charge    9.99886, renormalised to   10.00000

     negative rho (up, down):  1.297E-04 0.000E+00
     Starting wfcs are   10 randomized atomic wfcs
     Checking if some PAW data can be deallocated... 

     total cpu time spent up to now is        4.0 secs

     Self-consistent Calculation

     iteration #  1     ecut=    35.00 Ry     beta= 0.70
     Davidson diagonalization with overlap
     ethr =  1.00E-02,  avg # of iterations =  2.7

     negative rho (up, down):  9.451E-05 0.000E+00

     total cpu time spent up to now is       10.2 secs

     total energy              =     -25.04742754 Ry
     estimated scf accuracy    <       0.11106953 Ry

     iteration #  2     ecut=    35.00 Ry     beta= 0.70
     Davidson diagonalization with overlap
     ethr =  1.11E-03,  avg # of iterations =  2.0

     negative rho (up, down):  1.049E-04 0.000E+00

     total cpu time spent up to now is       15.3 secs

     total energy              =     -25.05691365 Ry
     estimated scf accuracy    <       0.01102010 Ry

     iteration #  3     ecut=    35.00 Ry     beta= 0.70
     Davidson diagonalization with overlap
     ethr =  1.10E-04,  avg # of iterations =  5.2

     negative rho (up, down):  1.103E-04 0.000E+00

     total cpu time spent up to now is       21.8 secs

     total energy              =     -25.05935145 Ry
     estimated scf accuracy    <       0.00177180 Ry

     iteration #  4     ecut=    35.00 Ry     beta= 0.70
     Davidson diagonalization with overlap
     ethr =  1.77E-05,  avg # of iterations =  2.7

     negative rho (up, down):  1.128E-04 0.000E+00

     total cpu time spent up to now is       27.2 secs

     total energy              =     -25.05959127 Ry
     estimated scf accuracy    <       0.00002450 Ry

     iteration #  5     ecut=    35.00 Ry     beta= 0.70
     Davidson diagonalization with overlap
     ethr =  2.45E-07,  avg # of iterations =  4.4

     negative rho (up, down):  1.129E-04 0.000E+00

     total cpu time spent up to now is       34.1 secs

     total energy              =     -25.05960259 Ry
     estimated scf accuracy    <       0.00001610 Ry

     iteration #  6     ecut=    35.00 Ry     beta= 0.70
     Davidson diagonalization with overlap
     ethr =  1.61E-07,  avg # of iterations =  1.4

     negative rho (up, down):  1.130E-04 0.000E+00

     total cpu time spent up to now is       39.0 secs

     total energy              =     -25.05960379 Ry
     estimated scf accuracy    <       0.00000274 Ry

     iteration #  7     ecut=    35.00 Ry     beta= 0.70
     Davidson diagonalization with overlap
     ethr =  2.74E-08,  avg # of iterations =  2.0

     negative rho (up, down):  1.129E-04 0.000E+00

     total cpu time spent up to now is       44.2 secs

     End of self-consistent calculation

          k = 0.0000 0.0000 0.0000 (  8943 PWs)   bands (ev):

   -12.8282  -9.0482  -6.1495  -4.1437  -4.1300  -3.3145  -0.6969  -0.6809
    -0.4249

          k =-0.1250 0.0722 0.0000 (  8937 PWs)   bands (ev):

   -12.7068  -9.0890  -6.1562  -5.1841  -4.3387  -2.3444  -0.7075  -0.3502
    -0.2921

          k =-0.2500 0.1443 0.0000 (  8916 PWs)   bands (ev):

   -12.3553  -9.3055  -6.2591  -6.1322  -4.7141  -2.0843  -0.2557   0.0041
     0.5468

          k =-0.3750 0.2165 0.0000 (  8946 PWs)   bands (ev):

   -11.8355  -9.8180  -6.6840  -6.2485  -5.0063  -2.2535  -0.3275   0.0968
     1.1677

          k = 0.5000-0.2887 0.0000 (  8974 PWs)   bands (ev):

   -11.4673 -10.2243  -6.7663  -6.3017  -5.1119  -2.3171  -0.4782   0.0819
     1.3201

          k = 0.0000 0.1443 0.0000 (  8937 PWs)   bands (ev):

   -12.7066  -9.0894  -6.1564  -5.1906  -4.3301  -2.3450  -0.6989  -0.3502
    -0.3022

          k =-0.1250 0.2165 0.0000 (  8918 PWs)   bands (ev):

   -12.4691  -9.2182  -6.1808  -5.9355  -4.7562  -1.6056  -0.7853  -0.2428
     0.5505

          k =-0.2500 0.2887 0.0000 (  8950 PWs)   bands (ev):

   -12.0232  -9.6013  -6.4995  -6.2396  -5.2430  -1.4676  -0.2745  -0.0356
     0.7199

          k = 0.6250-0.2165 0.0000 (  8972 PWs)   bands (ev):

   -11.4944 -10.1627  -6.6949  -6.3086  -5.5040  -1.5722  -0.3689   0.1363
     0.8525

          k = 0.5000-0.1443 0.0000 (  8972 PWs)   bands (ev):

   -11.4953 -10.1612  -6.6948  -6.3078  -5.5058  -1.5715  -0.3688   0.1376
     0.8505

          k = 0.3750-0.0722 0.0000 (  8950 PWs)   bands (ev):

   -12.0242  -9.5992  -6.4977  -6.2382  -5.2482  -1.4651  -0.2755  -0.0346
     0.7148

          k = 0.2500 0.0000 0.0000 (  8918 PWs)   bands (ev):

   -12.4698  -9.2169  -6.1803  -5.9295  -4.7651  -1.6012  -0.7951  -0.2425
     0.5555

          k = 0.0000 0.2887 0.0000 (  8916 PWs)   bands (ev):

   -12.3542  -9.3075  -6.2632  -6.1333  -4.7076  -2.0787  -0.2553   0.0066
     0.5404

          k =-0.1250 0.3609 0.0000 (  8950 PWs)   bands (ev):

   -12.0222  -9.6033  -6.5020  -6.2392  -5.2403  -1.4617  -0.2743  -0.0355
     0.7152

          k = 0.7500-0.1443 0.0000 (  9000 PWs)   bands (ev):

   -11.5183 -10.1037  -6.5479  -6.3658  -5.8505  -0.3907  -0.3089  -0.0066
     0.7288

          k = 0.6250-0.0722 0.0000 (  8986 PWs)   bands (ev):

   -11.0917 -10.5366  -6.5562  -6.3791  -6.1028  -0.3710  -0.2157   0.2803
     0.5300

          k = 0.5000 0.0000 0.0000 (  9000 PWs)   bands (ev):

   -11.5214 -10.0988  -6.5460  -6.3638  -5.8564  -0.3876  -0.3133  -0.0014
     0.7221

          k = 0.0000 0.4330 0.0000 (  8946 PWs)   bands (ev):

   -11.8323  -9.8237  -6.6865  -6.2494  -5.0010  -2.2469  -0.3272   0.0977
     1.1650

          k = 0.8750-0.0722 0.0000 (  8972 PWs)   bands (ev):

   -11.4898 -10.1697  -6.6965  -6.3094  -5.4999  -1.5665  -0.3683   0.1379
     0.8507

          k = 0.7500 0.0000 0.0000 (  8986 PWs)   bands (ev):

   -11.0851 -10.5446  -6.5580  -6.3798  -6.0990  -0.3709  -0.2148   0.2800
     0.5340

          k = 0.0000-0.5774 0.0000 (  8978 PWs)   bands (ev):

   -11.4604 -10.2346  -6.7675  -6.3033  -5.1070  -2.3104  -0.4776   0.0821
     1.3188

     the Fermi energy is    -4.0269 ev

!    total energy              =     -25.05960430 Ry
     estimated scf accuracy    <       0.00000002 Ry
     smearing contrib. (-TS)   =       0.00002788 Ry
     internal energy E=F+TS    =     -25.05963218 Ry

     The total energy is F=E-TS. E is the sum of the following terms:
     one-electron contribution =    -101.05228587 Ry
     hartree contribution      =      51.54776199 Ry
     xc contribution           =     -13.20258991 Ry
     ewald contribution        =      37.64776652 Ry
     one-center paw contrib.   =      -0.00028491 Ry

     convergence has been achieved in   7 iterations

     negative rho (up, down):  1.129E-04 0.000E+00

     Forces acting on atoms (cartesian axes, Ry/au):

     atom    1 type  2   force =     0.00000000    0.00001546    0.07993451
     atom    2 type  1   force =     0.00000000   -0.00041107   -0.02206614
     atom    3 type  1   force =     0.00000000    0.00041113    0.02194730
     atom    4 type  2   force =     0.00000000   -0.00001553   -0.07981567

     Total force =     0.117171     Total SCF correction =     0.000042

     BFGS Geometry Optimization

     number of scf cycles    =   1
     number of bfgs steps    =   0

     energy   new            =     -25.0596042960 Ry

     new trust radius        =       0.0799345116 bohr

     The maximum number of steps has been reached.

     End of BFGS Geometry Optimization

ATOMIC_POSITIONS (crystal)
H             0.0000010738        0.0000010738        0.0018688817
Si           -0.0000285438       -0.0000285438        0.0744840901
Si            0.3330285483        0.3330285483        0.1115131314
H             0.3329989217        0.3329989217        0.1841338967



     Writing output data file /home/jesus/Documentos/Nanociencia_DFT/silicano.save/
     NEW-OLD atomic charge density approx. for the potential

     negative rho (up, down):  1.165E-04 0.000E+00

     Writing output data file /home/jesus/Documentos/Nanociencia_DFT/silicano.save/
 
     init_run     :      2.92s CPU      3.19s WALL (       1 calls)
     electrons    :     37.47s CPU     40.15s WALL (       1 calls)
     update_pot   :      0.86s CPU      0.86s WALL (       1 calls)
     forces       :      1.54s CPU      1.70s WALL (       1 calls)

     Called by init_run:
     wfcinit      :      1.39s CPU      1.40s WALL (       1 calls)
     potinit      :      0.44s CPU      0.48s WALL (       1 calls)
     hinit0       :      0.62s CPU      0.65s WALL (       1 calls)

     Called by electrons:
     c_bands      :     25.55s CPU     25.62s WALL (       7 calls)
     sum_band     :      7.85s CPU      9.11s WALL (       7 calls)
     v_of_rho     :      1.45s CPU      1.54s WALL (       9 calls)
     newd         :      3.40s CPU      5.02s WALL (       9 calls)
     PAW_pot      :      0.01s CPU      0.01s WALL (      10 calls)
     mix_rho      :      0.18s CPU      0.19s WALL (       7 calls)

     Called by c_bands:
     init_us_2    :      1.24s CPU      1.24s WALL (     357 calls)
     cegterg      :     21.02s CPU     21.09s WALL (     147 calls)

     Called by *egterg:
     cdiaghg      :      0.09s CPU      0.09s WALL (     575 calls)
     h_psi        :     19.31s CPU     19.37s WALL (     596 calls)
     s_psi        :      0.81s CPU      0.82s WALL (     596 calls)
     g_psi        :      0.08s CPU      0.08s WALL (     428 calls)

     Called by h_psi:
     h_psi:calbec :      0.85s CPU      0.85s WALL (     596 calls)
     vloc_psi     :     17.53s CPU     17.58s WALL (     596 calls)
     add_vuspsi   :      0.80s CPU      0.81s WALL (     596 calls)

     General routines
     calbec       :      1.27s CPU      1.28s WALL (     848 calls)
     fft          :      0.62s CPU      0.64s WALL (     127 calls)
     ffts         :      0.03s CPU      0.03s WALL (      16 calls)
     fftw         :     16.68s CPU     16.73s WALL (    8881 calls)
     interpolate  :      0.10s CPU      0.10s WALL (       9 calls)
     davcio       :      0.01s CPU      0.01s WALL (      21 calls)
 
     Parallel routines
 
     PWSCF        :     44.18s CPU     47.51s WALL

 
   This run was terminated on:  17:12:26  31Mar2021            

=------------------------------------------------------------------------------=
   JOB DONE.
=------------------------------------------------------------------------------=
