
     Program PWSCF v.6.6 starts on 31Mar2021 at 17:12:26 

     This program is part of the open-source Quantum ESPRESSO suite
     for quantum simulation of materials; please cite
         "P. Giannozzi et al., J. Phys.:Condens. Matter 21 395502 (2009);
         "P. Giannozzi et al., J. Phys.:Condens. Matter 29 465901 (2017);
          URL http://www.quantum-espresso.org", 
     in publications or presentations arising from this work. More details at
     http://www.quantum-espresso.org/quote

     Parallel version (MPI), running on     1 processors

     MPI processes distributed on     1 nodes
     Fft bands division:     nmany     =       1
     Waiting for input...
     Reading input from standard input
Warning: card &CELL ignored
Warning: card   CELL_DYNAMICS='BFGS', ignored
Warning: card   CELL_DOFREE='ALL', ignored
Warning: card / ignored

     Current dimensions of program PWSCF are:
     Max number of different atomic species (ntypx) = 10
     Max number of k-points (npk) =  40000
     Max angular momentum in pseudopotentials (lmaxx) =  3

     File /home/jesus/Documentos/Nanociencia_DFT/silicano.update deleted, as requested

     File /home/jesus/Documentos/Nanociencia_DFT/silicano.bfgs deleted, as requested
     file H.pbe-kjpaw_psl.1.0.0.UPF: wavefunction(s)  1S renormalized

     Subspace diagonalization in iterative solution of the eigenvalue problem:
     a serial algorithm will be used

     Message from routine setup:
     using ibrav=0 with symmetry is DISCOURAGED, use correct ibrav instead
 
     G-vector sticks info
     --------------------
     sticks:   dense  smooth     PW     G-vecs:    dense   smooth      PW
     Sum        1039     691    211               140907    76503   12997
 


     bravais-lattice index     =            0
     lattice parameter (alat)  =       8.5038  a.u.
     unit-cell volume          =    2739.3845 (a.u.)^3
     number of atoms/cell      =            4
     number of atomic types    =            2
     number of electrons       =        10.00
     number of Kohn-Sham states=            9
     kinetic-energy cutoff     =      35.0000  Ry
     charge density cutoff     =     210.0000  Ry
     convergence threshold     =      1.0E-06
     mixing beta               =       0.7000
     number of iterations used =            8  plain     mixing
     Exchange-correlation= SLA PW PBX PBC
                           (   1   4   3   4   0   0   0)
     nstep                     =            1


     celldm(1)=   8.503768  celldm(2)=   0.000000  celldm(3)=   0.000000
     celldm(4)=   0.000000  celldm(5)=   0.000000  celldm(6)=   0.000000

     crystal axes: (cart. coord. in units of alat)
               a(1) = (   0.500000   0.866000   0.000000 )  
               a(2) = (  -0.500000   0.866000   0.000000 )  
               a(3) = (   0.000000   0.000000   5.144000 )  

     reciprocal axes: (cart. coord. in units 2 pi/alat)
               b(1) = (  1.000000  0.577367  0.000000 )  
               b(2) = ( -1.000000  0.577367  0.000000 )  
               b(3) = (  0.000000  0.000000  0.194401 )  


     PseudoPot. # 1 for Si read from file:
     /home/jesus/Nanociencia_DFT/pseudopotenciales/Si.pbe-n-rrkjus_psl.1.0.0.UPF
     MD5 check sum: fa25574f73a70a4139f2adfbefec430c
     Pseudo is Ultrasoft + core correction, Zval =  4.0
     Generated using "atomic" code by A. Dal Corso v.6.3
     Using radial grid of 1141 points,  6 beta functions with: 
                l(1) =   0
                l(2) =   0
                l(3) =   1
                l(4) =   1
                l(5) =   2
                l(6) =   2
     Q(r) pseudized with 0 coefficients 


     PseudoPot. # 2 for H  read from file:
     /home/jesus/Nanociencia_DFT/pseudopotenciales/H.pbe-kjpaw_psl.1.0.0.UPF
     MD5 check sum: d81a744832360e4a8af0b0b5b123bc2a
     Pseudo is Projector augmented-wave, Zval =  1.0
     Generated using "atomic" code by A. Dal Corso v.6.3MaX
     Shape of augmentation charge: PSQ
     Using radial grid of  929 points,  2 beta functions with: 
                l(1) =   0
                l(2) =   0
     Q(r) pseudized with 0 coefficients 


     atomic species   valence    mass     pseudopotential
        Si             4.00    28.08550     Si( 1.00)
        H              1.00     1.00800     H ( 1.00)

      2 Sym. Ops. (no inversion) found



   Cartesian axes

     site n.     atom                  positions (alat units)
         1           H   tau(   1) = (   0.0000000   0.0000000   0.0000000  )
         2           Si  tau(   2) = (   0.0000000   0.0000000   0.3858000  )
         3           Si  tau(   3) = (   0.0000000   0.5767560   0.5709840  )
         4           H   tau(   4) = (   0.0000000   0.5767560   0.9567840  )

     number of k points=    21  Methfessel-Paxton smearing, width (Ry)=  0.0100
                       cart. coord. in units 2pi/alat
        k(    1) = (   0.0000000   0.0000000   0.0000000), wk =   0.0312500
        k(    2) = (  -0.1250000   0.0721709   0.0000000), wk =   0.1250000
        k(    3) = (  -0.2500000   0.1443418   0.0000000), wk =   0.1250000
        k(    4) = (  -0.3750000   0.2165127   0.0000000), wk =   0.1250000
        k(    5) = (   0.5000000  -0.2886836   0.0000000), wk =   0.0625000
        k(    6) = (   0.0000000   0.1443418   0.0000000), wk =   0.0625000
        k(    7) = (  -0.1250000   0.2165127   0.0000000), wk =   0.1250000
        k(    8) = (  -0.2500000   0.2886836   0.0000000), wk =   0.1250000
        k(    9) = (   0.6250000  -0.2165127   0.0000000), wk =   0.1250000
        k(   10) = (   0.5000000  -0.1443418   0.0000000), wk =   0.1250000
        k(   11) = (   0.3750000  -0.0721709   0.0000000), wk =   0.1250000
        k(   12) = (   0.2500000   0.0000000   0.0000000), wk =   0.0625000
        k(   13) = (   0.0000000   0.2886836   0.0000000), wk =   0.0625000
        k(   14) = (  -0.1250000   0.3608545   0.0000000), wk =   0.1250000
        k(   15) = (   0.7500000  -0.1443418   0.0000000), wk =   0.1250000
        k(   16) = (   0.6250000  -0.0721709   0.0000000), wk =   0.1250000
        k(   17) = (   0.5000000   0.0000000   0.0000000), wk =   0.0625000
        k(   18) = (   0.0000000   0.4330254   0.0000000), wk =   0.0625000
        k(   19) = (   0.8750000  -0.0721709   0.0000000), wk =   0.1250000
        k(   20) = (   0.7500000   0.0000000   0.0000000), wk =   0.0625000
        k(   21) = (   0.0000000  -0.5773672   0.0000000), wk =   0.0312500

     Dense  grid:   140907 G-vectors     FFT dimensions: (  40,  40, 216)

     Smooth grid:    76503 G-vectors     FFT dimensions: (  36,  36, 180)

     Estimated max dynamical RAM per process >     532.84 MB

     Initial potential from superposition of free atoms

     starting charge    9.99886, renormalised to   10.00000

     negative rho (up, down):  1.359E-04 0.000E+00
     Starting wfcs are   10 randomized atomic wfcs
     Checking if some PAW data can be deallocated... 

     total cpu time spent up to now is        4.9 secs

     Self-consistent Calculation

     iteration #  1     ecut=    35.00 Ry     beta= 0.70
     Davidson diagonalization with overlap
     ethr =  1.00E-02,  avg # of iterations =  2.7

     negative rho (up, down):  9.170E-05 0.000E+00

     total cpu time spent up to now is       13.9 secs

     total energy              =     -25.01077906 Ry
     estimated scf accuracy    <       0.10667513 Ry

     iteration #  2     ecut=    35.00 Ry     beta= 0.70
     Davidson diagonalization with overlap
     ethr =  1.07E-03,  avg # of iterations =  2.0

     negative rho (up, down):  1.053E-04 0.000E+00

     total cpu time spent up to now is       21.4 secs

     total energy              =     -25.02183470 Ry
     estimated scf accuracy    <       0.01487510 Ry

     iteration #  3     ecut=    35.00 Ry     beta= 0.70
     Davidson diagonalization with overlap
     ethr =  1.49E-04,  avg # of iterations =  3.6

     negative rho (up, down):  1.140E-04 0.000E+00

     total cpu time spent up to now is       30.0 secs

     total energy              =     -25.02532820 Ry
     estimated scf accuracy    <       0.00201282 Ry

     iteration #  4     ecut=    35.00 Ry     beta= 0.70
     Davidson diagonalization with overlap
     ethr =  2.01E-05,  avg # of iterations =  4.6

     negative rho (up, down):  1.157E-04 0.000E+00

     total cpu time spent up to now is       38.5 secs

     total energy              =     -25.02556565 Ry
     estimated scf accuracy    <       0.00003797 Ry

     iteration #  5     ecut=    35.00 Ry     beta= 0.70
     Davidson diagonalization with overlap
     ethr =  3.80E-07,  avg # of iterations =  4.2

     negative rho (up, down):  1.160E-04 0.000E+00

     total cpu time spent up to now is       47.9 secs

     total energy              =     -25.02559088 Ry
     estimated scf accuracy    <       0.00001788 Ry

     iteration #  6     ecut=    35.00 Ry     beta= 0.70
     Davidson diagonalization with overlap
     ethr =  1.79E-07,  avg # of iterations =  1.0

     negative rho (up, down):  1.164E-04 0.000E+00

     total cpu time spent up to now is       55.2 secs

     total energy              =     -25.02559121 Ry
     estimated scf accuracy    <       0.00000516 Ry

     iteration #  7     ecut=    35.00 Ry     beta= 0.70
     Davidson diagonalization with overlap
     ethr =  5.16E-08,  avg # of iterations =  2.0

     negative rho (up, down):  1.163E-04 0.000E+00

     total cpu time spent up to now is       62.6 secs

     End of self-consistent calculation

          k = 0.0000 0.0000 0.0000 (  9455 PWs)   bands (ev):

   -12.6981  -9.0683  -6.1858  -4.2462  -4.2329  -3.7194  -0.9074  -0.8917
    -0.6344

          k =-0.1250 0.0722 0.0000 (  9504 PWs)   bands (ev):

   -12.5844  -9.1220  -6.1928  -5.2896  -4.4258  -2.7114  -0.9358  -0.5625
    -0.5344

          k =-0.2500 0.1443 0.0000 (  9554 PWs)   bands (ev):

   -12.2558  -9.3625  -6.2764  -6.1665  -4.7750  -2.3546  -0.5706  -0.2295
     0.2412

          k =-0.3750 0.2165 0.0000 (  9580 PWs)   bands (ev):

   -11.7720  -9.8651  -6.6539  -6.2787  -5.0487  -2.4833  -0.5557  -0.0941
     0.8406

          k = 0.5000-0.2887 0.0000 (  9586 PWs)   bands (ev):

   -11.4329 -10.2441  -6.7328  -6.3257  -5.1479  -2.5421  -0.6492  -0.1217
     1.0049

          k = 0.0000 0.1443 0.0000 (  9504 PWs)   bands (ev):

   -12.5842  -9.1224  -6.1930  -5.2956  -4.4174  -2.7125  -0.9271  -0.5623
    -0.5444

          k =-0.1250 0.2165 0.0000 (  9564 PWs)   bands (ev):

   -12.3621  -9.2706  -6.2162  -5.9812  -4.8093  -1.9916  -0.9970  -0.4736
     0.2261

          k =-0.2500 0.2887 0.0000 (  9579 PWs)   bands (ev):

   -11.9459  -9.6606  -6.4886  -6.2696  -5.2630  -1.7721  -0.5833  -0.2431
     0.5047

          k = 0.6250-0.2165 0.0000 (  9595 PWs)   bands (ev):

   -11.4553 -10.1936  -6.6667  -6.3320  -5.5090  -1.8579  -0.5702  -0.0564
     0.5926

          k = 0.5000-0.1443 0.0000 (  9595 PWs)   bands (ev):

   -11.4563 -10.1922  -6.6666  -6.3312  -5.5106  -1.8572  -0.5703  -0.0549
     0.5903

          k = 0.3750-0.0722 0.0000 (  9579 PWs)   bands (ev):

   -11.9469  -9.6585  -6.4869  -6.2684  -5.2681  -1.7694  -0.5858  -0.2417
     0.4987

          k = 0.2500 0.0000 0.0000 (  9564 PWs)   bands (ev):

   -12.3627  -9.2693  -6.2157  -5.9757  -4.8179  -1.9877  -1.0068  -0.4728
     0.2314

          k = 0.0000 0.2887 0.0000 (  9554 PWs)   bands (ev):

   -12.2548  -9.3646  -6.2800  -6.1678  -4.7687  -2.3496  -0.5695  -0.2273
     0.2347

          k =-0.1250 0.3609 0.0000 (  9579 PWs)   bands (ev):

   -11.9448  -9.6626  -6.4910  -6.2693  -5.2604  -1.7666  -0.5835  -0.2429
     0.5001

          k = 0.7500-0.1443 0.0000 (  9616 PWs)   bands (ev):

   -11.4752 -10.1457  -6.5390  -6.3760  -5.8278  -0.8306  -0.5809  -0.1714
     0.5197

          k = 0.6250-0.0722 0.0000 (  9636 PWs)   bands (ev):

   -11.0789 -10.5532  -6.5439  -6.3952  -6.0581  -0.7585  -0.4597   0.0940
     0.3249

          k = 0.5000 0.0000 0.0000 (  9616 PWs)   bands (ev):

   -11.4782 -10.1409  -6.5372  -6.3742  -5.8334  -0.8272  -0.5858  -0.1668
     0.5132

          k = 0.0000 0.4330 0.0000 (  9580 PWs)   bands (ev):

   -11.7689  -9.8707  -6.6564  -6.2795  -5.0436  -2.4769  -0.5553  -0.0922
     0.8375

          k = 0.8750-0.0722 0.0000 (  9595 PWs)   bands (ev):

   -11.4508 -10.2004  -6.6685  -6.3326  -5.5049  -1.8524  -0.5697  -0.0542
     0.5903

          k = 0.7500 0.0000 0.0000 (  9636 PWs)   bands (ev):

   -11.0725 -10.5609  -6.5457  -6.3957  -6.0546  -0.7581  -0.4585   0.0931
     0.3286

          k = 0.0000-0.5774 0.0000 (  9586 PWs)   bands (ev):

   -11.4261 -10.2540  -6.7342  -6.3270  -5.1431  -2.5356  -0.6488  -0.1209
     1.0032

     the Fermi energy is    -4.1329 ev

!    total energy              =     -25.02559224 Ry
     estimated scf accuracy    <       0.00000002 Ry
     smearing contrib. (-TS)   =       0.00003342 Ry
     internal energy E=F+TS    =     -25.02562565 Ry

     The total energy is F=E-TS. E is the sum of the following terms:
     one-electron contribution =     -99.35495254 Ry
     hartree contribution      =      50.65228002 Ry
     xc contribution           =     -13.13381790 Ry
     ewald contribution        =      36.81114948 Ry
     one-center paw contrib.   =      -0.00028471 Ry

     convergence has been achieved in   7 iterations

     negative rho (up, down):  1.163E-04 0.000E+00

     Forces acting on atoms (cartesian axes, Ry/au):

     atom    1 type  2   force =     0.00000000    0.00001776    0.08750897
     atom    2 type  1   force =     0.00000000   -0.00033915   -0.02579855
     atom    3 type  1   force =     0.00000000    0.00033744    0.02577840
     atom    4 type  2   force =     0.00000000   -0.00001604   -0.08748882

     Total force =     0.129006     Total SCF correction =     0.000060

     BFGS Geometry Optimization

     number of scf cycles    =   1
     number of bfgs steps    =   0

     energy   new            =     -25.0255922364 Ry

     new trust radius        =       0.0875089723 bohr

     The maximum number of steps has been reached.

     End of BFGS Geometry Optimization

ATOMIC_POSITIONS (crystal)
H             0.0000012057        0.0000012057        0.0020005077
Si           -0.0000230269       -0.0000230269        0.0744102295
Si            0.3330229103        0.3330229103        0.1115893098
H             0.3329989109        0.3329989109        0.1839999530



     Writing output data file /home/jesus/Documentos/Nanociencia_DFT/silicano.save/
     NEW-OLD atomic charge density approx. for the potential

     negative rho (up, down):  1.204E-04 0.000E+00

     Writing output data file /home/jesus/Documentos/Nanociencia_DFT/silicano.save/
 
     init_run     :      3.71s CPU      4.03s WALL (       1 calls)
     electrons    :     54.76s CPU     57.67s WALL (       1 calls)
     update_pot   :      0.93s CPU      0.93s WALL (       1 calls)
     forces       :      1.56s CPU      1.78s WALL (       1 calls)

     Called by init_run:
     wfcinit      :      2.10s CPU      2.13s WALL (       1 calls)
     potinit      :      0.45s CPU      0.48s WALL (       1 calls)
     hinit0       :      0.66s CPU      0.70s WALL (       1 calls)

     Called by electrons:
     c_bands      :     38.90s CPU     39.02s WALL (       7 calls)
     sum_band     :     11.45s CPU     12.85s WALL (       7 calls)
     v_of_rho     :      1.49s CPU      1.56s WALL (       9 calls)
     newd         :      3.81s CPU      5.53s WALL (       9 calls)
     PAW_pot      :      0.01s CPU      0.01s WALL (      10 calls)
     mix_rho      :      0.20s CPU      0.20s WALL (       7 calls)

     Called by c_bands:
     init_us_2    :      1.34s CPU      1.35s WALL (     357 calls)
     cegterg      :     34.03s CPU     34.14s WALL (     147 calls)

     Called by *egterg:
     cdiaghg      :      0.09s CPU      0.09s WALL (     568 calls)
     h_psi        :     32.96s CPU     33.09s WALL (     589 calls)
     s_psi        :      0.86s CPU      0.86s WALL (     589 calls)
     g_psi        :      0.09s CPU      0.09s WALL (     421 calls)

     Called by h_psi:
     h_psi:calbec :      0.86s CPU      0.87s WALL (     589 calls)
     vloc_psi     :     31.13s CPU     31.25s WALL (     589 calls)
     add_vuspsi   :      0.82s CPU      0.82s WALL (     589 calls)

     General routines
     calbec       :      1.33s CPU      1.33s WALL (     841 calls)
     fft          :      0.65s CPU      0.68s WALL (     127 calls)
     ffts         :      0.06s CPU      0.06s WALL (      16 calls)
     fftw         :     30.24s CPU     30.37s WALL (    8663 calls)
     interpolate  :      0.12s CPU      0.12s WALL (       9 calls)
     davcio       :      0.01s CPU      0.01s WALL (      21 calls)
 
     Parallel routines
 
     PWSCF        :   1m 2.52s CPU   1m 6.22s WALL

 
   This run was terminated on:  17:13:33  31Mar2021            

=------------------------------------------------------------------------------=
   JOB DONE.
=------------------------------------------------------------------------------=
