
     Program PWSCF v.6.6 starts on  1Apr2021 at 23:52:42 

     This program is part of the open-source Quantum ESPRESSO suite
     for quantum simulation of materials; please cite
         "P. Giannozzi et al., J. Phys.:Condens. Matter 21 395502 (2009);
         "P. Giannozzi et al., J. Phys.:Condens. Matter 29 465901 (2017);
          URL http://www.quantum-espresso.org", 
     in publications or presentations arising from this work. More details at
     http://www.quantum-espresso.org/quote

     Parallel version (MPI), running on     1 processors

     MPI processes distributed on     1 nodes
     Fft bands division:     nmany     =       1
     Waiting for input...
     Reading input from standard input
Warning: card &CELL ignored
Warning: card   CELL_DYNAMICS='BFGS', ignored
Warning: card   CELL_DOFREE='ALL', ignored
Warning: card / ignored

     Current dimensions of program PWSCF are:
     Max number of different atomic species (ntypx) = 10
     Max number of k-points (npk) =  40000
     Max angular momentum in pseudopotentials (lmaxx) =  3

     File /home/jesus/Documentos/Nanociencia_DFT/silicano.update deleted, as requested

     File /home/jesus/Documentos/Nanociencia_DFT/silicano.bfgs deleted, as requested

     Subspace diagonalization in iterative solution of the eigenvalue problem:
     a serial algorithm will be used

     Message from routine setup:
     using ibrav=0 with symmetry is DISCOURAGED, use correct ibrav instead
 
     G-vector sticks info
     --------------------
     sticks:   dense  smooth     PW     G-vecs:    dense   smooth      PW
     Sum         769     511    163                90643    49381    8823
 


     bravais-lattice index     =            0
     lattice parameter (alat)  =       7.3510  a.u.
     unit-cell volume          =    1769.5558 (a.u.)^3
     number of atoms/cell      =            4
     number of atomic types    =            2
     number of electrons       =        10.00
     number of Kohn-Sham states=            9
     kinetic-energy cutoff     =      35.0000  Ry
     charge density cutoff     =     210.0000  Ry
     convergence threshold     =      1.0E-06
     mixing beta               =       0.7000
     number of iterations used =            8  plain     mixing
     Exchange-correlation= PBE
                           (   1   4   3   4   0   0   0)
     nstep                     =            1


     celldm(1)=   7.351035  celldm(2)=   0.000000  celldm(3)=   0.000000
     celldm(4)=   0.000000  celldm(5)=   0.000000  celldm(6)=   0.000000

     crystal axes: (cart. coord. in units of alat)
               a(1) = (   0.500000   0.866000   0.000000 )  
               a(2) = (  -0.500000   0.866000   0.000000 )  
               a(3) = (   0.000000   0.000000   5.144000 )  

     reciprocal axes: (cart. coord. in units 2 pi/alat)
               b(1) = (  1.000000  0.577367  0.000000 )  
               b(2) = ( -1.000000  0.577367  0.000000 )  
               b(3) = (  0.000000  0.000000  0.194401 )  


     PseudoPot. # 1 for Si read from file:
     /home/jesus/Nanociencia_DFT/pseudopotenciales/Si.pbe-n-rrkjus_psl.1.0.0.UPF
     MD5 check sum: fa25574f73a70a4139f2adfbefec430c
     Pseudo is Ultrasoft + core correction, Zval =  4.0
     Generated using "atomic" code by A. Dal Corso v.6.3
     Using radial grid of 1141 points,  6 beta functions with: 
                l(1) =   0
                l(2) =   0
                l(3) =   1
                l(4) =   1
                l(5) =   2
                l(6) =   2
     Q(r) pseudized with 0 coefficients 


     PseudoPot. # 2 for H  read from file:
     /home/jesus/Nanociencia_DFT/pseudopotenciales/H.pbe-rrkjus_psl.1.0.0.UPF
     MD5 check sum: 3f4114867bd07edc7f1424d066fc1888
     Pseudo is Ultrasoft, Zval =  1.0
     Generated using "atomic" code by A. Dal Corso v.6.3MaX
     Using radial grid of  929 points,  2 beta functions with: 
                l(1) =   0
                l(2) =   0
     Q(r) pseudized with 0 coefficients 


     atomic species   valence    mass     pseudopotential
        Si             4.00    28.08550     Si( 1.00)
        H              1.00     1.00800     H ( 1.00)

      2 Sym. Ops. (no inversion) found



   Cartesian axes

     site n.     atom                  positions (alat units)
         1           H   tau(   1) = (   0.0000000   0.0000000   0.0000000  )
         2           Si  tau(   2) = (   0.0000000   0.0000000   0.3858000  )
         3           Si  tau(   3) = (   0.0000000   0.5767560   0.5709840  )
         4           H   tau(   4) = (   0.0000000   0.5767560   0.9567840  )

     number of k points=    21  Methfessel-Paxton smearing, width (Ry)=  0.0100
                       cart. coord. in units 2pi/alat
        k(    1) = (   0.0000000   0.0000000   0.0000000), wk =   0.0312500
        k(    2) = (  -0.1250000   0.0721709   0.0000000), wk =   0.1250000
        k(    3) = (  -0.2500000   0.1443418   0.0000000), wk =   0.1250000
        k(    4) = (  -0.3750000   0.2165127   0.0000000), wk =   0.1250000
        k(    5) = (   0.5000000  -0.2886836   0.0000000), wk =   0.0625000
        k(    6) = (   0.0000000   0.1443418   0.0000000), wk =   0.0625000
        k(    7) = (  -0.1250000   0.2165127   0.0000000), wk =   0.1250000
        k(    8) = (  -0.2500000   0.2886836   0.0000000), wk =   0.1250000
        k(    9) = (   0.6250000  -0.2165127   0.0000000), wk =   0.1250000
        k(   10) = (   0.5000000  -0.1443418   0.0000000), wk =   0.1250000
        k(   11) = (   0.3750000  -0.0721709   0.0000000), wk =   0.1250000
        k(   12) = (   0.2500000   0.0000000   0.0000000), wk =   0.0625000
        k(   13) = (   0.0000000   0.2886836   0.0000000), wk =   0.0625000
        k(   14) = (  -0.1250000   0.3608545   0.0000000), wk =   0.1250000
        k(   15) = (   0.7500000  -0.1443418   0.0000000), wk =   0.1250000
        k(   16) = (   0.6250000  -0.0721709   0.0000000), wk =   0.1250000
        k(   17) = (   0.5000000   0.0000000   0.0000000), wk =   0.0625000
        k(   18) = (   0.0000000   0.4330254   0.0000000), wk =   0.0625000
        k(   19) = (   0.8750000  -0.0721709   0.0000000), wk =   0.1250000
        k(   20) = (   0.7500000   0.0000000   0.0000000), wk =   0.0625000
        k(   21) = (   0.0000000  -0.5773672   0.0000000), wk =   0.0312500

     Dense  grid:    90643 G-vectors     FFT dimensions: (  36,  36, 180)

     Smooth grid:    49381 G-vectors     FFT dimensions: (  27,  27, 144)

     Estimated max dynamical RAM per process >     344.45 MB

     Initial potential from superposition of free atoms

     starting charge    9.99886, renormalised to   10.00000

     negative rho (up, down):  1.005E-04 0.000E+00
     Starting wfcs are   10 randomized atomic wfcs

     total cpu time spent up to now is        2.9 secs

     Self-consistent Calculation

     iteration #  1     ecut=    35.00 Ry     beta= 0.70
     Davidson diagonalization with overlap
     ethr =  1.00E-02,  avg # of iterations =  3.5

     negative rho (up, down):  8.208E-05 0.000E+00

     total cpu time spent up to now is        6.8 secs

     total energy              =     -25.15080417 Ry
     estimated scf accuracy    <       0.16530669 Ry

     iteration #  2     ecut=    35.00 Ry     beta= 0.70
     Davidson diagonalization with overlap
     ethr =  1.65E-03,  avg # of iterations =  1.3

     negative rho (up, down):  9.777E-05 0.000E+00

     total cpu time spent up to now is        9.8 secs

     total energy              =     -25.16064685 Ry
     estimated scf accuracy    <       0.00463858 Ry

     iteration #  3     ecut=    35.00 Ry     beta= 0.70
     Davidson diagonalization with overlap
     c_bands:  1 eigenvalues not converged
     ethr =  4.64E-05,  avg # of iterations =  8.6

     negative rho (up, down):  9.990E-05 0.000E+00

     total cpu time spent up to now is       14.5 secs

     total energy              =     -25.16142572 Ry
     estimated scf accuracy    <       0.00026110 Ry

     iteration #  4     ecut=    35.00 Ry     beta= 0.70
     Davidson diagonalization with overlap
     ethr =  2.61E-06,  avg # of iterations =  5.6

     negative rho (up, down):  1.032E-04 0.000E+00

     total cpu time spent up to now is       18.2 secs

     total energy              =     -25.16146976 Ry
     estimated scf accuracy    <       0.00002352 Ry

     iteration #  5     ecut=    35.00 Ry     beta= 0.70
     Davidson diagonalization with overlap
     ethr =  2.35E-07,  avg # of iterations =  1.6

     negative rho (up, down):  1.034E-04 0.000E+00

     total cpu time spent up to now is       21.2 secs

     End of self-consistent calculation

          k = 0.0000 0.0000 0.0000 (  6083 PWs)   bands (ev):

   -13.6997  -9.1451  -5.8810  -3.3950  -3.3796  -1.0576   0.5303   0.5469
     0.7874

          k =-0.1250 0.0722 0.0000 (  6148 PWs)   bands (ev):

   -13.5299  -9.1052  -5.8807  -4.5374  -3.6988  -0.4670   0.5816   1.0869
     1.1476

          k =-0.2500 0.1443 0.0000 (  6186 PWs)   bands (ev):

   -13.0341  -9.1211  -6.1416  -5.8415  -4.2470  -0.8155   1.1071   1.3779
     2.1627

          k =-0.3750 0.2165 0.0000 (  6204 PWs)   bands (ev):

   -12.2812  -9.6207  -6.8726  -5.9956  -4.6565  -1.1259   0.6446   1.3442
     3.0053

          k = 0.5000-0.2887 0.0000 (  6190 PWs)   bands (ev):

   -11.7069 -10.2176  -6.9509  -6.0971  -4.8020  -1.1996   0.2872   1.3261
     3.0205

          k = 0.0000 0.1443 0.0000 (  6148 PWs)   bands (ev):

   -13.5297  -9.1054  -5.8809  -4.5453  -3.6894  -0.4641   0.5852   1.0869
     1.1374

          k =-0.1250 0.2165 0.0000 (  6159 PWs)   bands (ev):

   -13.1960  -9.0870  -5.9062  -5.6049  -4.3569   0.1871   0.4370   1.2850
     1.6423

          k =-0.2500 0.2887 0.0000 (  6188 PWs)   bands (ev):

   -12.5605  -9.3358  -6.5594  -5.9955  -5.0522  -0.0590   1.1145   1.2857
     2.0484

          k = 0.6250-0.2165 0.0000 (  6215 PWs)   bands (ev):

   -11.7753 -10.0545  -6.8637  -6.1071  -5.4088  -0.1497   0.5179   1.3401
     2.2660

          k = 0.5000-0.1443 0.0000 (  6215 PWs)   bands (ev):

   -11.7763 -10.0529  -6.8640  -6.1057  -5.4109  -0.1485   0.5169   1.3402
     2.2654

          k = 0.3750-0.0722 0.0000 (  6188 PWs)   bands (ev):

   -12.5615  -9.3339  -6.5575  -5.9935  -5.0579  -0.0574   1.1161   1.2831
     2.0461

          k = 0.2500 0.0000 0.0000 (  6159 PWs)   bands (ev):

   -13.1965  -9.0863  -5.9055  -5.5973  -4.3670   0.1919   0.4278   1.2873
     1.6416

          k = 0.0000 0.2887 0.0000 (  6186 PWs)   bands (ev):

   -13.0332  -9.1225  -6.1466  -5.8425  -4.2402  -0.8092   1.1070   1.3770
     2.3915

          k =-0.1250 0.3609 0.0000 (  6188 PWs)   bands (ev):

   -12.5596  -9.3376  -6.5618  -5.9953  -5.0493  -0.0529   1.1148   1.2839
     2.0467

          k = 0.7500-0.1443 0.0000 (  6205 PWs)   bands (ev):

   -11.8335  -9.8941  -6.5812  -6.3704  -5.8467   0.7523   1.0423   1.8098
     2.1636

          k = 0.6250-0.0722 0.0000 (  6199 PWs)   bands (ev):

   -11.2021 -10.4835  -6.7075  -6.2712  -6.2219   0.6141   1.3889   1.4592
     2.0490

          k = 0.5000 0.0000 0.0000 (  6205 PWs)   bands (ev):

   -11.8364  -9.8889  -6.5795  -6.3700  -5.8513   0.7536   1.0419   1.8064
     2.1553

          k = 0.0000 0.4330 0.0000 (  6204 PWs)   bands (ev):

   -12.2783  -9.6263  -6.8739  -5.9975  -4.6509  -1.1198   0.6457   1.3419
     3.0047

          k = 0.8750-0.0722 0.0000 (  6215 PWs)   bands (ev):

   -11.7708 -10.0619  -6.8638  -6.1088  -5.4047  -0.1434   0.5193   1.3372
     2.2663

          k = 0.7500 0.0000 0.0000 (  6199 PWs)   bands (ev):

   -11.1950 -10.4924  -6.7078  -6.2672  -6.2239   0.6150   1.3875   1.4600
     2.0542

          k = 0.0000-0.5774 0.0000 (  6190 PWs)   bands (ev):

   -11.6996 -10.2287  -6.9499  -6.1002  -4.7968  -1.1936   0.2892   1.3227
     3.0208

     the Fermi energy is    -3.2720 ev

!    total energy              =     -25.16147248 Ry
     estimated scf accuracy    <       0.00000100 Ry
     smearing contrib. (-TS)   =       0.00001856 Ry
     internal energy E=F+TS    =     -25.16149104 Ry

     The total energy is F=E-TS. E is the sum of the following terms:
     one-electron contribution =    -110.83252014 Ry
     hartree contribution      =      56.73224584 Ry
     xc contribution           =     -13.64480869 Ry
     ewald contribution        =      42.58359195 Ry

     convergence has been achieved in   5 iterations

     negative rho (up, down):  1.034E-04 0.000E+00

     Forces acting on atoms (cartesian axes, Ry/au):

     atom    1 type  2   force =     0.00000000   -0.00000992   -0.00103992
     atom    2 type  1   force =     0.00000000   -0.00103420    0.00160360
     atom    3 type  1   force =     0.00000000    0.00103306   -0.00139686
     atom    4 type  2   force =     0.00000000    0.00001105    0.00083319

     Total force =     0.002904     Total SCF correction =     0.000442
     SCF correction compared to forces is large: reduce conv_thr to get better values

     BFGS Geometry Optimization

     number of scf cycles    =   1
     number of bfgs steps    =   0

     energy   new            =     -25.1614724781 Ry

     new trust radius        =       0.0019081664 bohr

     The maximum number of steps has been reached.

     End of BFGS Geometry Optimization

ATOMIC_POSITIONS (crystal)
H            -0.0000007790       -0.0000007790       -0.0000275012
Si           -0.0000812281       -0.0000812281        0.0750424079
Si            0.3330811392        0.3330811392        0.1109630594
H             0.3330008680        0.3330008680        0.1860220339



     Writing output data file /home/jesus/Documentos/Nanociencia_DFT/silicano.save/
     NEW-OLD atomic charge density approx. for the potential

     negative rho (up, down):  1.034E-04 0.000E+00

     Writing output data file /home/jesus/Documentos/Nanociencia_DFT/silicano.save/
 
     init_run     :      1.95s CPU      2.11s WALL (       1 calls)
     electrons    :     17.18s CPU     18.32s WALL (       1 calls)
     update_pot   :      0.54s CPU      0.54s WALL (       1 calls)
     forces       :      0.89s CPU      0.99s WALL (       1 calls)

     Called by init_run:
     wfcinit      :      0.79s CPU      0.80s WALL (       1 calls)
     potinit      :      0.29s CPU      0.32s WALL (       1 calls)
     hinit0       :      0.55s CPU      0.58s WALL (       1 calls)

     Called by electrons:
     c_bands      :     12.21s CPU     12.23s WALL (       5 calls)
     sum_band     :      3.23s CPU      3.77s WALL (       5 calls)
     v_of_rho     :      0.73s CPU      0.77s WALL (       7 calls)
     newd         :      1.57s CPU      2.31s WALL (       7 calls)
     mix_rho      :      0.06s CPU      0.06s WALL (       5 calls)

     Called by c_bands:
     init_us_2    :      0.54s CPU      0.55s WALL (     252 calls)
     cegterg      :     10.17s CPU     10.18s WALL (     105 calls)

     Called by *egterg:
     cdiaghg      :      0.08s CPU      0.08s WALL (     538 calls)
     h_psi        :      9.38s CPU      9.40s WALL (     559 calls)
     s_psi        :      0.39s CPU      0.39s WALL (     559 calls)
     g_psi        :      0.04s CPU      0.04s WALL (     433 calls)

     Called by h_psi:
     h_psi:calbec :      0.44s CPU      0.44s WALL (     559 calls)
     vloc_psi     :      8.48s CPU      8.50s WALL (     559 calls)
     add_vuspsi   :      0.41s CPU      0.41s WALL (     559 calls)

     General routines
     calbec       :      0.63s CPU      0.63s WALL (     748 calls)
     fft          :      0.32s CPU      0.34s WALL (     101 calls)
     ffts         :      0.02s CPU      0.02s WALL (      12 calls)
     fftw         :      8.65s CPU      8.67s WALL (    7107 calls)
     interpolate  :      0.04s CPU      0.04s WALL (       7 calls)
     davcio       :      0.00s CPU      0.01s WALL (      21 calls)
 
     Parallel routines
 
     PWSCF        :     21.60s CPU     23.12s WALL

 
   This run was terminated on:  23:53: 6   1Apr2021            

=------------------------------------------------------------------------------=
   JOB DONE.
=------------------------------------------------------------------------------=
