
     Program PWSCF v.6.6 starts on  1Apr2021 at 23:33:47 

     This program is part of the open-source Quantum ESPRESSO suite
     for quantum simulation of materials; please cite
         "P. Giannozzi et al., J. Phys.:Condens. Matter 21 395502 (2009);
         "P. Giannozzi et al., J. Phys.:Condens. Matter 29 465901 (2017);
          URL http://www.quantum-espresso.org", 
     in publications or presentations arising from this work. More details at
     http://www.quantum-espresso.org/quote

     Parallel version (MPI), running on     1 processors

     MPI processes distributed on     1 nodes
     Fft bands division:     nmany     =       1
     Waiting for input...
     Reading input from standard input
Warning: card &CELL ignored
Warning: card   CELL_DYNAMICS='BFGS', ignored
Warning: card   CELL_DOFREE='ALL', ignored
Warning: card / ignored

     Current dimensions of program PWSCF are:
     Max number of different atomic species (ntypx) = 10
     Max number of k-points (npk) =  40000
     Max angular momentum in pseudopotentials (lmaxx) =  3

     File /home/jesus/Documentos/Nanociencia_DFT/silicano.update deleted, as requested

     File /home/jesus/Documentos/Nanociencia_DFT/silicano.bfgs deleted, as requested

     Subspace diagonalization in iterative solution of the eigenvalue problem:
     a serial algorithm will be used

     Message from routine setup:
     using ibrav=0 with symmetry is DISCOURAGED, use correct ibrav instead
 
     G-vector sticks info
     --------------------
     sticks:   dense  smooth     PW     G-vecs:    dense   smooth      PW
     Sum         793     517    163                92971    50459    9051
 


     bravais-lattice index     =            0
     lattice parameter (alat)  =       7.4077  a.u.
     unit-cell volume          =    1810.8132 (a.u.)^3
     number of atoms/cell      =            4
     number of atomic types    =            2
     number of electrons       =        10.00
     number of Kohn-Sham states=            9
     kinetic-energy cutoff     =      35.0000  Ry
     charge density cutoff     =     210.0000  Ry
     convergence threshold     =      1.0E-06
     mixing beta               =       0.7000
     number of iterations used =            8  plain     mixing
     Exchange-correlation= PBE
                           (   1   4   3   4   0   0   0)
     nstep                     =            1


     celldm(1)=   7.407726  celldm(2)=   0.000000  celldm(3)=   0.000000
     celldm(4)=   0.000000  celldm(5)=   0.000000  celldm(6)=   0.000000

     crystal axes: (cart. coord. in units of alat)
               a(1) = (   0.500000   0.866000   0.000000 )  
               a(2) = (  -0.500000   0.866000   0.000000 )  
               a(3) = (   0.000000   0.000000   5.144000 )  

     reciprocal axes: (cart. coord. in units 2 pi/alat)
               b(1) = (  1.000000  0.577367  0.000000 )  
               b(2) = ( -1.000000  0.577367  0.000000 )  
               b(3) = (  0.000000  0.000000  0.194401 )  


     PseudoPot. # 1 for Si read from file:
     /home/jesus/Nanociencia_DFT/pseudopotenciales/Si.pbe-n-rrkjus_psl.1.0.0.UPF
     MD5 check sum: fa25574f73a70a4139f2adfbefec430c
     Pseudo is Ultrasoft + core correction, Zval =  4.0
     Generated using "atomic" code by A. Dal Corso v.6.3
     Using radial grid of 1141 points,  6 beta functions with: 
                l(1) =   0
                l(2) =   0
                l(3) =   1
                l(4) =   1
                l(5) =   2
                l(6) =   2
     Q(r) pseudized with 0 coefficients 


     PseudoPot. # 2 for H  read from file:
     /home/jesus/Nanociencia_DFT/pseudopotenciales/H.pbe-rrkjus_psl.1.0.0.UPF
     MD5 check sum: 3f4114867bd07edc7f1424d066fc1888
     Pseudo is Ultrasoft, Zval =  1.0
     Generated using "atomic" code by A. Dal Corso v.6.3MaX
     Using radial grid of  929 points,  2 beta functions with: 
                l(1) =   0
                l(2) =   0
     Q(r) pseudized with 0 coefficients 


     atomic species   valence    mass     pseudopotential
        Si             4.00    28.08550     Si( 1.00)
        H              1.00     1.00800     H ( 1.00)

      2 Sym. Ops. (no inversion) found



   Cartesian axes

     site n.     atom                  positions (alat units)
         1           H   tau(   1) = (   0.0000000   0.0000000   0.0000000  )
         2           Si  tau(   2) = (   0.0000000   0.0000000   0.3858000  )
         3           Si  tau(   3) = (   0.0000000   0.5767560   0.5709840  )
         4           H   tau(   4) = (   0.0000000   0.5767560   0.9567840  )

     number of k points=    21  Methfessel-Paxton smearing, width (Ry)=  0.0100
                       cart. coord. in units 2pi/alat
        k(    1) = (   0.0000000   0.0000000   0.0000000), wk =   0.0312500
        k(    2) = (  -0.1250000   0.0721709   0.0000000), wk =   0.1250000
        k(    3) = (  -0.2500000   0.1443418   0.0000000), wk =   0.1250000
        k(    4) = (  -0.3750000   0.2165127   0.0000000), wk =   0.1250000
        k(    5) = (   0.5000000  -0.2886836   0.0000000), wk =   0.0625000
        k(    6) = (   0.0000000   0.1443418   0.0000000), wk =   0.0625000
        k(    7) = (  -0.1250000   0.2165127   0.0000000), wk =   0.1250000
        k(    8) = (  -0.2500000   0.2886836   0.0000000), wk =   0.1250000
        k(    9) = (   0.6250000  -0.2165127   0.0000000), wk =   0.1250000
        k(   10) = (   0.5000000  -0.1443418   0.0000000), wk =   0.1250000
        k(   11) = (   0.3750000  -0.0721709   0.0000000), wk =   0.1250000
        k(   12) = (   0.2500000   0.0000000   0.0000000), wk =   0.0625000
        k(   13) = (   0.0000000   0.2886836   0.0000000), wk =   0.0625000
        k(   14) = (  -0.1250000   0.3608545   0.0000000), wk =   0.1250000
        k(   15) = (   0.7500000  -0.1443418   0.0000000), wk =   0.1250000
        k(   16) = (   0.6250000  -0.0721709   0.0000000), wk =   0.1250000
        k(   17) = (   0.5000000   0.0000000   0.0000000), wk =   0.0625000
        k(   18) = (   0.0000000   0.4330254   0.0000000), wk =   0.0625000
        k(   19) = (   0.8750000  -0.0721709   0.0000000), wk =   0.1250000
        k(   20) = (   0.7500000   0.0000000   0.0000000), wk =   0.0625000
        k(   21) = (   0.0000000  -0.5773672   0.0000000), wk =   0.0312500

     Dense  grid:    92971 G-vectors     FFT dimensions: (  36,  36, 180)

     Smooth grid:    50459 G-vectors     FFT dimensions: (  27,  27, 144)

     Estimated max dynamical RAM per process >     352.77 MB

     Initial potential from superposition of free atoms

     starting charge    9.99886, renormalised to   10.00000

     negative rho (up, down):  1.035E-04 0.000E+00
     Starting wfcs are   10 randomized atomic wfcs

     total cpu time spent up to now is        2.9 secs

     Self-consistent Calculation

     iteration #  1     ecut=    35.00 Ry     beta= 0.70
     Davidson diagonalization with overlap
     ethr =  1.00E-02,  avg # of iterations =  3.1

     negative rho (up, down):  8.517E-05 0.000E+00

     total cpu time spent up to now is        6.8 secs

     total energy              =     -25.15059896 Ry
     estimated scf accuracy    <       0.16025435 Ry

     iteration #  2     ecut=    35.00 Ry     beta= 0.70
     Davidson diagonalization with overlap
     ethr =  1.60E-03,  avg # of iterations =  1.4

     negative rho (up, down):  1.003E-04 0.000E+00

     total cpu time spent up to now is        9.7 secs

     total energy              =     -25.16012213 Ry
     estimated scf accuracy    <       0.00476708 Ry

     iteration #  3     ecut=    35.00 Ry     beta= 0.70
     Davidson diagonalization with overlap
     c_bands:  1 eigenvalues not converged
     ethr =  4.77E-05,  avg # of iterations =  8.5

     negative rho (up, down):  1.019E-04 0.000E+00

     total cpu time spent up to now is       14.6 secs

     total energy              =     -25.16096118 Ry
     estimated scf accuracy    <       0.00029451 Ry

     iteration #  4     ecut=    35.00 Ry     beta= 0.70
     Davidson diagonalization with overlap
     ethr =  2.95E-06,  avg # of iterations =  5.1

     negative rho (up, down):  1.053E-04 0.000E+00

     total cpu time spent up to now is       18.5 secs

     total energy              =     -25.16101068 Ry
     estimated scf accuracy    <       0.00002584 Ry

     iteration #  5     ecut=    35.00 Ry     beta= 0.70
     Davidson diagonalization with overlap
     ethr =  2.58E-07,  avg # of iterations =  1.9

     negative rho (up, down):  1.052E-04 0.000E+00

     total cpu time spent up to now is       21.5 secs

     total energy              =     -25.16101362 Ry
     estimated scf accuracy    <       0.00000198 Ry

     iteration #  6     ecut=    35.00 Ry     beta= 0.70
     Davidson diagonalization with overlap
     ethr =  1.98E-08,  avg # of iterations =  2.0

     negative rho (up, down):  1.055E-04 0.000E+00

     total cpu time spent up to now is       24.7 secs

     End of self-consistent calculation

          k = 0.0000 0.0000 0.0000 (  6245 PWs)   bands (ev):

   -13.6369  -9.1284  -5.8994  -3.4521  -3.4367  -1.1843   0.4504   0.4671
     0.7143

          k =-0.1250 0.0722 0.0000 (  6278 PWs)   bands (ev):

   -13.4704  -9.0937  -5.8998  -4.5829  -3.7477  -0.5636   0.5053   0.9958
     1.0525

          k =-0.2500 0.1443 0.0000 (  6308 PWs)   bands (ev):

   -12.9845  -9.1250  -6.1503  -5.8636  -4.2836  -0.8855   1.0321   1.3090
     2.2720

          k =-0.3750 0.2165 0.0000 (  6346 PWs)   bands (ev):

   -12.2481  -9.6295  -6.8590  -6.0145  -4.6850  -1.1887   0.5976   1.2565
     2.8904

          k = 0.5000-0.2887 0.0000 (  6342 PWs)   bands (ev):

   -11.6894 -10.2120  -6.9389  -6.1122  -4.8278  -1.2612   0.2461   1.2429
     2.9165

          k = 0.0000 0.1443 0.0000 (  6278 PWs)   bands (ev):

   -13.4702  -9.0939  -5.9000  -4.5908  -3.7383  -0.5608   0.5096   0.9960
     1.0423

          k =-0.1250 0.2165 0.0000 (  6311 PWs)   bands (ev):

   -13.1431  -9.0863  -5.9259  -5.6305  -4.3876   0.0985   0.3573   1.1912
     1.5913

          k =-0.2500 0.2887 0.0000 (  6347 PWs)   bands (ev):

   -12.5209  -9.3486  -6.5555  -6.0134  -5.0687  -0.1362   1.0463   1.2080
     1.9608

          k = 0.6250-0.2165 0.0000 (  6344 PWs)   bands (ev):

   -11.7542 -10.0576  -6.8517  -6.1221  -5.4186  -0.2273   0.4713   1.2562
     2.1789

          k = 0.5000-0.1443 0.0000 (  6344 PWs)   bands (ev):

   -11.7551 -10.0560  -6.8520  -6.1207  -5.4207  -0.2263   0.4705   1.2565
     2.1783

          k = 0.3750-0.0722 0.0000 (  6347 PWs)   bands (ev):

   -12.5218  -9.3466  -6.5536  -6.0115  -5.0744  -0.1346   1.0478   1.2060
     1.9586

          k = 0.2500 0.0000 0.0000 (  6311 PWs)   bands (ev):

   -13.1436  -9.0855  -5.9252  -5.6229  -4.3977   0.1035   0.3480   1.1936
     1.5906

          k = 0.0000 0.2887 0.0000 (  6308 PWs)   bands (ev):

   -12.9837  -9.1264  -6.1553  -5.8646  -4.2768  -0.8792   1.0320   1.3083
     2.2672

          k =-0.1250 0.3609 0.0000 (  6347 PWs)   bands (ev):

   -12.5200  -9.3504  -6.5580  -6.0132  -5.0658  -0.1300   1.0465   1.2067
     1.9591

          k = 0.7500-0.1443 0.0000 (  6363 PWs)   bands (ev):

   -11.8096  -9.9061  -6.5792  -6.3635  -5.8558   0.7073   0.9668   1.7320
     2.0857

          k = 0.6250-0.0722 0.0000 (  6335 PWs)   bands (ev):

   -11.1932 -10.4846  -6.6905  -6.2669  -6.2341   0.5766   1.3125   1.3859
     1.9271

          k = 0.5000 0.0000 0.0000 (  6363 PWs)   bands (ev):

   -11.8125  -9.9008  -6.5775  -6.3628  -5.8607   0.7087   0.9662   1.7289
     2.0775

          k = 0.0000 0.4330 0.0000 (  6346 PWs)   bands (ev):

   -12.2451  -9.6351  -6.8605  -6.0164  -4.6794  -1.1825   0.5988   1.2543
     2.8896

          k = 0.8750-0.0722 0.0000 (  6344 PWs)   bands (ev):

   -11.7496 -10.0650  -6.8520  -6.1237  -5.4145  -0.2211   0.4727   1.2536
     2.1791

          k = 0.7500 0.0000 0.0000 (  6335 PWs)   bands (ev):

   -11.1861 -10.4935  -6.6910  -6.2627  -6.2360   0.5774   1.3110   1.3867
     1.9323

          k = 0.0000-0.5774 0.0000 (  6342 PWs)   bands (ev):

   -11.6820 -10.2231  -6.9381  -6.1152  -4.8226  -1.2551   0.2480   1.2396
     2.9168

     the Fermi energy is    -3.3292 ev

!    total energy              =     -25.16101381 Ry
     estimated scf accuracy    <       0.00000047 Ry
     smearing contrib. (-TS)   =       0.00001864 Ry
     internal energy E=F+TS    =     -25.16103245 Ry

     The total energy is F=E-TS. E is the sum of the following terms:
     one-electron contribution =    -110.19846925 Ry
     hartree contribution      =      56.39380623 Ry
     xc contribution           =     -13.61406654 Ry
     ewald contribution        =      42.25769712 Ry

     convergence has been achieved in   6 iterations

     negative rho (up, down):  1.055E-04 0.000E+00

     Forces acting on atoms (cartesian axes, Ry/au):

     atom    1 type  2   force =     0.00000000   -0.00000932    0.00623800
     atom    2 type  1   force =     0.00000000   -0.00097597    0.00015140
     atom    3 type  1   force =     0.00000000    0.00097764    0.00009051
     atom    4 type  2   force =     0.00000000    0.00000765   -0.00647990

     Total force =     0.009102     Total SCF correction =     0.000923
     SCF correction compared to forces is large: reduce conv_thr to get better values

     BFGS Geometry Optimization

     number of scf cycles    =   1
     number of bfgs steps    =   0

     energy   new            =     -25.1610138055 Ry

     new trust radius        =       0.0064799094 bohr

     The maximum number of steps has been reached.

     End of BFGS Geometry Optimization

ATOMIC_POSITIONS (crystal)
H            -0.0000007262       -0.0000007262        0.0001637041
Si           -0.0000760680       -0.0000760680        0.0750039731
Si            0.3330761982        0.3330761982        0.1110023751
H             0.3330005960        0.3330005960        0.1858299476



     Writing output data file /home/jesus/Documentos/Nanociencia_DFT/silicano.save/
     NEW-OLD atomic charge density approx. for the potential

     negative rho (up, down):  1.057E-04 0.000E+00

     Writing output data file /home/jesus/Documentos/Nanociencia_DFT/silicano.save/
 
     init_run     :      1.94s CPU      2.14s WALL (       1 calls)
     electrons    :     20.42s CPU     21.75s WALL (       1 calls)
     update_pot   :      0.59s CPU      0.59s WALL (       1 calls)
     forces       :      0.87s CPU      1.00s WALL (       1 calls)

     Called by init_run:
     wfcinit      :      0.80s CPU      0.82s WALL (       1 calls)
     potinit      :      0.29s CPU      0.31s WALL (       1 calls)
     hinit0       :      0.57s CPU      0.59s WALL (       1 calls)

     Called by electrons:
     c_bands      :     14.43s CPU     14.46s WALL (       6 calls)
     sum_band     :      3.95s CPU      4.51s WALL (       6 calls)
     v_of_rho     :      0.80s CPU      0.85s WALL (       8 calls)
     newd         :      1.75s CPU      2.68s WALL (       8 calls)
     mix_rho      :      0.08s CPU      0.08s WALL (       6 calls)

     Called by c_bands:
     init_us_2    :      0.63s CPU      0.63s WALL (     294 calls)
     cegterg      :     11.96s CPU     11.99s WALL (     126 calls)

     Called by *egterg:
     cdiaghg      :      0.09s CPU      0.09s WALL (     587 calls)
     h_psi        :     11.01s CPU     11.05s WALL (     608 calls)
     s_psi        :      0.44s CPU      0.44s WALL (     608 calls)
     g_psi        :      0.05s CPU      0.05s WALL (     461 calls)

     Called by h_psi:
     h_psi:calbec :      0.49s CPU      0.50s WALL (     608 calls)
     vloc_psi     :     10.01s CPU     10.04s WALL (     608 calls)
     add_vuspsi   :      0.45s CPU      0.45s WALL (     608 calls)

     General routines
     calbec       :      0.71s CPU      0.72s WALL (     818 calls)
     fft          :      0.34s CPU      0.37s WALL (     114 calls)
     ffts         :      0.02s CPU      0.02s WALL (      14 calls)
     fftw         :     10.23s CPU     10.25s WALL (    8164 calls)
     interpolate  :      0.04s CPU      0.05s WALL (       8 calls)
     davcio       :      0.00s CPU      0.05s WALL (      21 calls)
 
     Parallel routines
 
     PWSCF        :     24.85s CPU     26.73s WALL

 
   This run was terminated on:  23:34:13   1Apr2021            

=------------------------------------------------------------------------------=
   JOB DONE.
=------------------------------------------------------------------------------=
