
     Program PWSCF v.6.6 starts on  1Apr2021 at 23:53:32 

     This program is part of the open-source Quantum ESPRESSO suite
     for quantum simulation of materials; please cite
         "P. Giannozzi et al., J. Phys.:Condens. Matter 21 395502 (2009);
         "P. Giannozzi et al., J. Phys.:Condens. Matter 29 465901 (2017);
          URL http://www.quantum-espresso.org", 
     in publications or presentations arising from this work. More details at
     http://www.quantum-espresso.org/quote

     Parallel version (MPI), running on     1 processors

     MPI processes distributed on     1 nodes
     Fft bands division:     nmany     =       1
     Waiting for input...
     Reading input from standard input
Warning: card &CELL ignored
Warning: card   CELL_DYNAMICS='BFGS', ignored
Warning: card   CELL_DOFREE='ALL', ignored
Warning: card / ignored

     Current dimensions of program PWSCF are:
     Max number of different atomic species (ntypx) = 10
     Max number of k-points (npk) =  40000
     Max angular momentum in pseudopotentials (lmaxx) =  3

     File /home/jesus/Documentos/Nanociencia_DFT/silicano.update deleted, as requested

     File /home/jesus/Documentos/Nanociencia_DFT/silicano.bfgs deleted, as requested

     Subspace diagonalization in iterative solution of the eigenvalue problem:
     a serial algorithm will be used

     Message from routine setup:
     using ibrav=0 with symmetry is DISCOURAGED, use correct ibrav instead
 
     G-vector sticks info
     --------------------
     sticks:   dense  smooth     PW     G-vecs:    dense   smooth      PW
     Sum         769     511    163                90847    49469    8835
 


     bravais-lattice index     =            0
     lattice parameter (alat)  =       7.3548  a.u.
     unit-cell volume          =    1772.2866 (a.u.)^3
     number of atoms/cell      =            4
     number of atomic types    =            2
     number of electrons       =        10.00
     number of Kohn-Sham states=            9
     kinetic-energy cutoff     =      35.0000  Ry
     charge density cutoff     =     210.0000  Ry
     convergence threshold     =      1.0E-06
     mixing beta               =       0.7000
     number of iterations used =            8  plain     mixing
     Exchange-correlation= PBE
                           (   1   4   3   4   0   0   0)
     nstep                     =            1


     celldm(1)=   7.354814  celldm(2)=   0.000000  celldm(3)=   0.000000
     celldm(4)=   0.000000  celldm(5)=   0.000000  celldm(6)=   0.000000

     crystal axes: (cart. coord. in units of alat)
               a(1) = (   0.500000   0.866000   0.000000 )  
               a(2) = (  -0.500000   0.866000   0.000000 )  
               a(3) = (   0.000000   0.000000   5.144000 )  

     reciprocal axes: (cart. coord. in units 2 pi/alat)
               b(1) = (  1.000000  0.577367  0.000000 )  
               b(2) = ( -1.000000  0.577367  0.000000 )  
               b(3) = (  0.000000  0.000000  0.194401 )  


     PseudoPot. # 1 for Si read from file:
     /home/jesus/Nanociencia_DFT/pseudopotenciales/Si.pbe-n-rrkjus_psl.1.0.0.UPF
     MD5 check sum: fa25574f73a70a4139f2adfbefec430c
     Pseudo is Ultrasoft + core correction, Zval =  4.0
     Generated using "atomic" code by A. Dal Corso v.6.3
     Using radial grid of 1141 points,  6 beta functions with: 
                l(1) =   0
                l(2) =   0
                l(3) =   1
                l(4) =   1
                l(5) =   2
                l(6) =   2
     Q(r) pseudized with 0 coefficients 


     PseudoPot. # 2 for H  read from file:
     /home/jesus/Nanociencia_DFT/pseudopotenciales/H.pbe-rrkjus_psl.1.0.0.UPF
     MD5 check sum: 3f4114867bd07edc7f1424d066fc1888
     Pseudo is Ultrasoft, Zval =  1.0
     Generated using "atomic" code by A. Dal Corso v.6.3MaX
     Using radial grid of  929 points,  2 beta functions with: 
                l(1) =   0
                l(2) =   0
     Q(r) pseudized with 0 coefficients 


     atomic species   valence    mass     pseudopotential
        Si             4.00    28.08550     Si( 1.00)
        H              1.00     1.00800     H ( 1.00)

      2 Sym. Ops. (no inversion) found



   Cartesian axes

     site n.     atom                  positions (alat units)
         1           H   tau(   1) = (   0.0000000   0.0000000   0.0000000  )
         2           Si  tau(   2) = (   0.0000000   0.0000000   0.3858000  )
         3           Si  tau(   3) = (   0.0000000   0.5767560   0.5709840  )
         4           H   tau(   4) = (   0.0000000   0.5767560   0.9567840  )

     number of k points=    21  Methfessel-Paxton smearing, width (Ry)=  0.0100
                       cart. coord. in units 2pi/alat
        k(    1) = (   0.0000000   0.0000000   0.0000000), wk =   0.0312500
        k(    2) = (  -0.1250000   0.0721709   0.0000000), wk =   0.1250000
        k(    3) = (  -0.2500000   0.1443418   0.0000000), wk =   0.1250000
        k(    4) = (  -0.3750000   0.2165127   0.0000000), wk =   0.1250000
        k(    5) = (   0.5000000  -0.2886836   0.0000000), wk =   0.0625000
        k(    6) = (   0.0000000   0.1443418   0.0000000), wk =   0.0625000
        k(    7) = (  -0.1250000   0.2165127   0.0000000), wk =   0.1250000
        k(    8) = (  -0.2500000   0.2886836   0.0000000), wk =   0.1250000
        k(    9) = (   0.6250000  -0.2165127   0.0000000), wk =   0.1250000
        k(   10) = (   0.5000000  -0.1443418   0.0000000), wk =   0.1250000
        k(   11) = (   0.3750000  -0.0721709   0.0000000), wk =   0.1250000
        k(   12) = (   0.2500000   0.0000000   0.0000000), wk =   0.0625000
        k(   13) = (   0.0000000   0.2886836   0.0000000), wk =   0.0625000
        k(   14) = (  -0.1250000   0.3608545   0.0000000), wk =   0.1250000
        k(   15) = (   0.7500000  -0.1443418   0.0000000), wk =   0.1250000
        k(   16) = (   0.6250000  -0.0721709   0.0000000), wk =   0.1250000
        k(   17) = (   0.5000000   0.0000000   0.0000000), wk =   0.0625000
        k(   18) = (   0.0000000   0.4330254   0.0000000), wk =   0.0625000
        k(   19) = (   0.8750000  -0.0721709   0.0000000), wk =   0.1250000
        k(   20) = (   0.7500000   0.0000000   0.0000000), wk =   0.0625000
        k(   21) = (   0.0000000  -0.5773672   0.0000000), wk =   0.0312500

     Dense  grid:    90847 G-vectors     FFT dimensions: (  36,  36, 180)

     Smooth grid:    49469 G-vectors     FFT dimensions: (  27,  27, 144)

     Estimated max dynamical RAM per process >     345.16 MB

     Initial potential from superposition of free atoms

     starting charge    9.99886, renormalised to   10.00000

     negative rho (up, down):  1.001E-04 0.000E+00
     Starting wfcs are   10 randomized atomic wfcs

     total cpu time spent up to now is        2.9 secs

     Self-consistent Calculation

     iteration #  1     ecut=    35.00 Ry     beta= 0.70
     Davidson diagonalization with overlap
     ethr =  1.00E-02,  avg # of iterations =  3.4

     negative rho (up, down):  8.047E-05 0.000E+00

     total cpu time spent up to now is        6.8 secs

     total energy              =     -25.15079429 Ry
     estimated scf accuracy    <       0.16490644 Ry

     iteration #  2     ecut=    35.00 Ry     beta= 0.70
     Davidson diagonalization with overlap
     ethr =  1.65E-03,  avg # of iterations =  1.5

     negative rho (up, down):  9.637E-05 0.000E+00

     total cpu time spent up to now is        9.7 secs

     total energy              =     -25.16063860 Ry
     estimated scf accuracy    <       0.00465429 Ry

     iteration #  3     ecut=    35.00 Ry     beta= 0.70
     Davidson diagonalization with overlap
     c_bands:  1 eigenvalues not converged
     ethr =  4.65E-05,  avg # of iterations =  9.2

     negative rho (up, down):  9.875E-05 0.000E+00

     total cpu time spent up to now is       14.5 secs

     total energy              =     -25.16142647 Ry
     estimated scf accuracy    <       0.00026776 Ry

     iteration #  4     ecut=    35.00 Ry     beta= 0.70
     Davidson diagonalization with overlap
     ethr =  2.68E-06,  avg # of iterations =  4.7

     negative rho (up, down):  1.019E-04 0.000E+00

     total cpu time spent up to now is       18.1 secs

     total energy              =     -25.16147007 Ry
     estimated scf accuracy    <       0.00002631 Ry

     iteration #  5     ecut=    35.00 Ry     beta= 0.70
     Davidson diagonalization with overlap
     ethr =  2.63E-07,  avg # of iterations =  1.7

     negative rho (up, down):  1.019E-04 0.000E+00

     total cpu time spent up to now is       21.2 secs

     total energy              =     -25.16147311 Ry
     estimated scf accuracy    <       0.00000849 Ry

     iteration #  6     ecut=    35.00 Ry     beta= 0.70
     Davidson diagonalization with overlap
     ethr =  8.49E-08,  avg # of iterations =  1.0

     negative rho (up, down):  1.021E-04 0.000E+00

     total cpu time spent up to now is       24.0 secs

     End of self-consistent calculation

          k = 0.0000 0.0000 0.0000 (  6083 PWs)   bands (ev):

   -13.6941  -9.1421  -5.8807  -3.3976  -3.3821  -1.0650   0.5261   0.5428
     0.7832

          k =-0.1250 0.0722 0.0000 (  6156 PWs)   bands (ev):

   -13.5245  -9.1026  -5.8804  -4.5392  -3.7008  -0.4724   0.5773   1.0814
     1.1424

          k =-0.2500 0.1443 0.0000 (  6194 PWs)   bands (ev):

   -13.0294  -9.1195  -6.1410  -5.8415  -4.2483  -0.8191   1.1031   1.3741
     2.1595

          k =-0.3750 0.2165 0.0000 (  6208 PWs)   bands (ev):

   -12.2775  -9.6196  -6.8703  -5.9953  -4.6572  -1.1291   0.6425   1.3396
     2.9990

          k = 0.5000-0.2887 0.0000 (  6206 PWs)   bands (ev):

   -11.7043 -10.2156  -6.9487  -6.0966  -4.8025  -1.2026   0.2856   1.3216
     3.0150

          k = 0.0000 0.1443 0.0000 (  6156 PWs)   bands (ev):

   -13.5244  -9.1027  -5.8806  -4.5472  -3.6914  -0.4694   0.5814   1.0823
     1.1323

          k =-0.1250 0.2165 0.0000 (  6163 PWs)   bands (ev):

   -13.1910  -9.0850  -5.9059  -5.6055  -4.3577   0.1823   0.4329   1.2799
     1.6399

          k =-0.2500 0.2887 0.0000 (  6204 PWs)   bands (ev):

   -12.5565  -9.3349  -6.5579  -5.9952  -5.0521  -0.0631   1.1107   1.2814
     2.0433

          k = 0.6250-0.2165 0.0000 (  6227 PWs)   bands (ev):

   -11.7724 -10.0531  -6.8615  -6.1066  -5.4083  -0.1537   0.5159   1.3355
     2.2613

          k = 0.5000-0.1443 0.0000 (  6227 PWs)   bands (ev):

   -11.7734 -10.0515  -6.8618  -6.1052  -5.4103  -0.1526   0.5149   1.3357
     2.2608

          k = 0.3750-0.0722 0.0000 (  6202 PWs)   bands (ev):

   -12.5574  -9.3329  -6.5560  -5.9932  -5.0578  -0.0615   1.1124   1.2788
     2.0413

          k = 0.2500 0.0000 0.0000 (  6163 PWs)   bands (ev):

   -13.1916  -9.0843  -5.9053  -5.5978  -4.3679   0.1871   0.4236   1.2821
     1.6390

          k = 0.0000 0.2887 0.0000 (  6194 PWs)   bands (ev):

   -13.0285  -9.1209  -6.1459  -5.8425  -4.2414  -0.8128   1.1030   1.3734
     2.3843

          k =-0.1250 0.3609 0.0000 (  6204 PWs)   bands (ev):

   -12.5556  -9.3366  -6.5604  -5.9950  -5.0492  -0.0569   1.1111   1.2797
     2.0419

          k = 0.7500-0.1443 0.0000 (  6221 PWs)   bands (ev):

   -11.8305  -9.8933  -6.5797  -6.3686  -5.8460   0.7505   1.0383   1.8057
     2.1595

          k = 0.6250-0.0722 0.0000 (  6203 PWs)   bands (ev):

   -11.2000 -10.4820  -6.7049  -6.2697  -6.2212   0.6128   1.3849   1.4554
     2.0419

          k = 0.5000 0.0000 0.0000 (  6221 PWs)   bands (ev):

   -11.8334  -9.8880  -6.5780  -6.3681  -5.8507   0.7518   1.0380   1.8023
     2.1511

          k = 0.0000 0.4330 0.0000 (  6208 PWs)   bands (ev):

   -12.2746  -9.6252  -6.8717  -5.9972  -4.6516  -1.1229   0.6436   1.3370
     2.9984

          k = 0.8750-0.0722 0.0000 (  6227 PWs)   bands (ev):

   -11.7679 -10.0605  -6.8616  -6.1082  -5.4042  -0.1475   0.5173   1.3326
     2.2617

          k = 0.7500 0.0000 0.0000 (  6203 PWs)   bands (ev):

   -11.1929 -10.4909  -6.7053  -6.2656  -6.2231   0.6137   1.3835   1.4563
     2.0472

          k = 0.0000-0.5774 0.0000 (  6206 PWs)   bands (ev):

   -11.6969 -10.2267  -6.9477  -6.0996  -4.7973  -1.1966   0.2875   1.3181
     3.0154

     the Fermi energy is    -3.2746 ev

!    total energy              =     -25.16147439 Ry
     estimated scf accuracy    <       0.00000045 Ry
     smearing contrib. (-TS)   =       0.00001856 Ry
     internal energy E=F+TS    =     -25.16149295 Ry

     The total energy is F=E-TS. E is the sum of the following terms:
     one-electron contribution =    -110.78922488 Ry
     hartree contribution      =      56.70869173 Ry
     xc contribution           =     -13.64266913 Ry
     ewald contribution        =      42.56170933 Ry

     convergence has been achieved in   6 iterations

     negative rho (up, down):  1.021E-04 0.000E+00

     Forces acting on atoms (cartesian axes, Ry/au):

     atom    1 type  2   force =     0.00000000   -0.00001116   -0.00048329
     atom    2 type  1   force =     0.00000000   -0.00102244    0.00143022
     atom    3 type  1   force =     0.00000000    0.00102455   -0.00131130
     atom    4 type  2   force =     0.00000000    0.00000905    0.00036438

     Total force =     0.002495     Total SCF correction =     0.000338
     SCF correction compared to forces is large: reduce conv_thr to get better values

     BFGS Geometry Optimization

     number of scf cycles    =   1
     number of bfgs steps    =   0

     energy   new            =     -25.1614743851 Ry

     new trust radius        =       0.0017580940 bohr

     The maximum number of steps has been reached.

     End of BFGS Geometry Optimization

ATOMIC_POSITIONS (crystal)
H            -0.0000008764       -0.0000008764       -0.0000127743
Si           -0.0000802632       -0.0000802632        0.0750378032
Si            0.3330804291        0.3330804291        0.1109653399
H             0.3330007105        0.3330007105        0.1860096312



     Writing output data file /home/jesus/Documentos/Nanociencia_DFT/silicano.save/
     NEW-OLD atomic charge density approx. for the potential

     negative rho (up, down):  1.021E-04 0.000E+00

     Writing output data file /home/jesus/Documentos/Nanociencia_DFT/silicano.save/
 
     init_run     :      1.92s CPU      2.10s WALL (       1 calls)
     electrons    :     19.71s CPU     21.10s WALL (       1 calls)
     update_pot   :      0.58s CPU      0.58s WALL (       1 calls)
     forces       :      0.89s CPU      0.99s WALL (       1 calls)

     Called by init_run:
     wfcinit      :      0.80s CPU      0.80s WALL (       1 calls)
     potinit      :      0.29s CPU      0.31s WALL (       1 calls)
     hinit0       :      0.56s CPU      0.59s WALL (       1 calls)

     Called by electrons:
     c_bands      :     13.88s CPU     13.92s WALL (       6 calls)
     sum_band     :      3.76s CPU      4.43s WALL (       6 calls)
     v_of_rho     :      0.83s CPU      0.88s WALL (       8 calls)
     newd         :      1.78s CPU      2.63s WALL (       8 calls)
     mix_rho      :      0.08s CPU      0.08s WALL (       6 calls)

     Called by c_bands:
     init_us_2    :      0.62s CPU      0.63s WALL (     294 calls)
     cegterg      :     11.41s CPU     11.45s WALL (     126 calls)

     Called by *egterg:
     cdiaghg      :      0.08s CPU      0.08s WALL (     579 calls)
     h_psi        :     10.50s CPU     10.53s WALL (     600 calls)
     s_psi        :      0.44s CPU      0.44s WALL (     600 calls)
     g_psi        :      0.05s CPU      0.05s WALL (     453 calls)

     Called by h_psi:
     h_psi:calbec :      0.48s CPU      0.48s WALL (     600 calls)
     vloc_psi     :      9.51s CPU      9.54s WALL (     600 calls)
     add_vuspsi   :      0.45s CPU      0.45s WALL (     600 calls)

     General routines
     calbec       :      0.69s CPU      0.70s WALL (     810 calls)
     fft          :      0.34s CPU      0.37s WALL (     114 calls)
     ffts         :      0.02s CPU      0.02s WALL (      14 calls)
     fftw         :      9.81s CPU      9.85s WALL (    8076 calls)
     interpolate  :      0.05s CPU      0.05s WALL (       8 calls)
     davcio       :      0.00s CPU      0.01s WALL (      21 calls)
 
     Parallel routines
 
     PWSCF        :     24.21s CPU     26.00s WALL

 
   This run was terminated on:  23:53:58   1Apr2021            

=------------------------------------------------------------------------------=
   JOB DONE.
=------------------------------------------------------------------------------=
