
     Program PWSCF v.6.6 starts on  1Apr2021 at 23:30:55 

     This program is part of the open-source Quantum ESPRESSO suite
     for quantum simulation of materials; please cite
         "P. Giannozzi et al., J. Phys.:Condens. Matter 21 395502 (2009);
         "P. Giannozzi et al., J. Phys.:Condens. Matter 29 465901 (2017);
          URL http://www.quantum-espresso.org", 
     in publications or presentations arising from this work. More details at
     http://www.quantum-espresso.org/quote

     Parallel version (MPI), running on     1 processors

     MPI processes distributed on     1 nodes
     Fft bands division:     nmany     =       1
     Waiting for input...
     Reading input from standard input
Warning: card &CELL ignored
Warning: card   CELL_DYNAMICS='BFGS', ignored
Warning: card   CELL_DOFREE='ALL', ignored
Warning: card / ignored

     Current dimensions of program PWSCF are:
     Max number of different atomic species (ntypx) = 10
     Max number of k-points (npk) =  40000
     Max angular momentum in pseudopotentials (lmaxx) =  3

     Subspace diagonalization in iterative solution of the eigenvalue problem:
     a serial algorithm will be used

     Message from routine setup:
     using ibrav=0 with symmetry is DISCOURAGED, use correct ibrav instead
 
     G-vector sticks info
     --------------------
     sticks:   dense  smooth     PW     G-vecs:    dense   smooth      PW
     Sum         769     511    163                88133    48051    8665
 


     bravais-lattice index     =            0
     lattice parameter (alat)  =       7.2754  a.u.
     unit-cell volume          =    1715.5273 (a.u.)^3
     number of atoms/cell      =            4
     number of atomic types    =            2
     number of electrons       =        10.00
     number of Kohn-Sham states=            9
     kinetic-energy cutoff     =      35.0000  Ry
     charge density cutoff     =     210.0000  Ry
     convergence threshold     =      1.0E-06
     mixing beta               =       0.7000
     number of iterations used =            8  plain     mixing
     Exchange-correlation= PBE
                           (   1   4   3   4   0   0   0)
     nstep                     =            1


     celldm(1)=   7.275446  celldm(2)=   0.000000  celldm(3)=   0.000000
     celldm(4)=   0.000000  celldm(5)=   0.000000  celldm(6)=   0.000000

     crystal axes: (cart. coord. in units of alat)
               a(1) = (   0.500000   0.866000   0.000000 )  
               a(2) = (  -0.500000   0.866000   0.000000 )  
               a(3) = (   0.000000   0.000000   5.144000 )  

     reciprocal axes: (cart. coord. in units 2 pi/alat)
               b(1) = (  1.000000  0.577367  0.000000 )  
               b(2) = ( -1.000000  0.577367  0.000000 )  
               b(3) = (  0.000000  0.000000  0.194401 )  


     PseudoPot. # 1 for Si read from file:
     /home/jesus/Nanociencia_DFT/pseudopotenciales/Si.pbe-n-rrkjus_psl.1.0.0.UPF
     MD5 check sum: fa25574f73a70a4139f2adfbefec430c
     Pseudo is Ultrasoft + core correction, Zval =  4.0
     Generated using "atomic" code by A. Dal Corso v.6.3
     Using radial grid of 1141 points,  6 beta functions with: 
                l(1) =   0
                l(2) =   0
                l(3) =   1
                l(4) =   1
                l(5) =   2
                l(6) =   2
     Q(r) pseudized with 0 coefficients 


     PseudoPot. # 2 for H  read from file:
     /home/jesus/Nanociencia_DFT/pseudopotenciales/H.pbe-rrkjus_psl.1.0.0.UPF
     MD5 check sum: 3f4114867bd07edc7f1424d066fc1888
     Pseudo is Ultrasoft, Zval =  1.0
     Generated using "atomic" code by A. Dal Corso v.6.3MaX
     Using radial grid of  929 points,  2 beta functions with: 
                l(1) =   0
                l(2) =   0
     Q(r) pseudized with 0 coefficients 


     atomic species   valence    mass     pseudopotential
        Si             4.00    28.08550     Si( 1.00)
        H              1.00     1.00800     H ( 1.00)

      2 Sym. Ops. (no inversion) found



   Cartesian axes

     site n.     atom                  positions (alat units)
         1           H   tau(   1) = (   0.0000000   0.0000000   0.0000000  )
         2           Si  tau(   2) = (   0.0000000   0.0000000   0.3858000  )
         3           Si  tau(   3) = (   0.0000000   0.5767560   0.5709840  )
         4           H   tau(   4) = (   0.0000000   0.5767560   0.9567840  )

     number of k points=    21  Methfessel-Paxton smearing, width (Ry)=  0.0100
                       cart. coord. in units 2pi/alat
        k(    1) = (   0.0000000   0.0000000   0.0000000), wk =   0.0312500
        k(    2) = (  -0.1250000   0.0721709   0.0000000), wk =   0.1250000
        k(    3) = (  -0.2500000   0.1443418   0.0000000), wk =   0.1250000
        k(    4) = (  -0.3750000   0.2165127   0.0000000), wk =   0.1250000
        k(    5) = (   0.5000000  -0.2886836   0.0000000), wk =   0.0625000
        k(    6) = (   0.0000000   0.1443418   0.0000000), wk =   0.0625000
        k(    7) = (  -0.1250000   0.2165127   0.0000000), wk =   0.1250000
        k(    8) = (  -0.2500000   0.2886836   0.0000000), wk =   0.1250000
        k(    9) = (   0.6250000  -0.2165127   0.0000000), wk =   0.1250000
        k(   10) = (   0.5000000  -0.1443418   0.0000000), wk =   0.1250000
        k(   11) = (   0.3750000  -0.0721709   0.0000000), wk =   0.1250000
        k(   12) = (   0.2500000   0.0000000   0.0000000), wk =   0.0625000
        k(   13) = (   0.0000000   0.2886836   0.0000000), wk =   0.0625000
        k(   14) = (  -0.1250000   0.3608545   0.0000000), wk =   0.1250000
        k(   15) = (   0.7500000  -0.1443418   0.0000000), wk =   0.1250000
        k(   16) = (   0.6250000  -0.0721709   0.0000000), wk =   0.1250000
        k(   17) = (   0.5000000   0.0000000   0.0000000), wk =   0.0625000
        k(   18) = (   0.0000000   0.4330254   0.0000000), wk =   0.0625000
        k(   19) = (   0.8750000  -0.0721709   0.0000000), wk =   0.1250000
        k(   20) = (   0.7500000   0.0000000   0.0000000), wk =   0.0625000
        k(   21) = (   0.0000000  -0.5773672   0.0000000), wk =   0.0312500

     Dense  grid:    88133 G-vectors     FFT dimensions: (  36,  36, 180)

     Smooth grid:    48051 G-vectors     FFT dimensions: (  27,  27, 144)

     Estimated max dynamical RAM per process >     335.35 MB

     Initial potential from superposition of free atoms

     starting charge    9.99886, renormalised to   10.00000

     negative rho (up, down):  9.810E-05 0.000E+00
     Starting wfcs are   10 randomized atomic wfcs

     total cpu time spent up to now is        4.1 secs

     Self-consistent Calculation

     iteration #  1     ecut=    35.00 Ry     beta= 0.70
     Davidson diagonalization with overlap
     ethr =  1.00E-02,  avg # of iterations =  3.7

     negative rho (up, down):  7.904E-05 0.000E+00

     total cpu time spent up to now is        7.9 secs

     total energy              =     -25.14930886 Ry
     estimated scf accuracy    <       0.17211812 Ry

     iteration #  2     ecut=    35.00 Ry     beta= 0.70
     Davidson diagonalization with overlap
     ethr =  1.72E-03,  avg # of iterations =  1.5

     negative rho (up, down):  9.473E-05 0.000E+00

     total cpu time spent up to now is       10.7 secs

     total energy              =     -25.15965455 Ry
     estimated scf accuracy    <       0.00454338 Ry

     iteration #  3     ecut=    35.00 Ry     beta= 0.70
     Davidson diagonalization with overlap
     c_bands:  1 eigenvalues not converged
     c_bands:  1 eigenvalues not converged
     c_bands:  1 eigenvalues not converged
     ethr =  4.54E-05,  avg # of iterations =  9.1

     negative rho (up, down):  9.675E-05 0.000E+00

     total cpu time spent up to now is       15.3 secs

     total energy              =     -25.16041744 Ry
     estimated scf accuracy    <       0.00022632 Ry

     iteration #  4     ecut=    35.00 Ry     beta= 0.70
     Davidson diagonalization with overlap
     ethr =  2.26E-06,  avg # of iterations =  6.7

     negative rho (up, down):  9.986E-05 0.000E+00

     total cpu time spent up to now is       19.0 secs

     total energy              =     -25.16045588 Ry
     estimated scf accuracy    <       0.00002043 Ry

     iteration #  5     ecut=    35.00 Ry     beta= 0.70
     Davidson diagonalization with overlap
     ethr =  2.04E-07,  avg # of iterations =  1.9

     negative rho (up, down):  1.005E-04 0.000E+00

     total cpu time spent up to now is       21.8 secs

     End of self-consistent calculation

          k = 0.0000 0.0000 0.0000 (  5939 PWs)   bands (ev):

   -13.7822  -9.1652  -5.8522  -3.3118  -3.2963  -0.8893   0.6421   0.6587
     0.8843

          k =-0.1250 0.0722 0.0000 (  5948 PWs)   bands (ev):

   -13.6077  -9.1179  -5.8503  -4.4710  -3.6269  -0.3379   0.6857   1.2054
     1.2804

          k =-0.2500 0.1443 0.0000 (  6004 PWs)   bands (ev):

   -13.0982  -9.1126  -6.1257  -5.8067  -4.1922  -0.7193   1.2092   1.4707
     2.2394

          k =-0.3750 0.2165 0.0000 (  5990 PWs)   bands (ev):

   -12.3226  -9.6048  -6.8874  -5.9650  -4.6128  -1.0396   0.7088   1.4665
     3.1639

          k = 0.5000-0.2887 0.0000 (  6034 PWs)   bands (ev):

   -11.7267 -10.2220  -6.9633  -6.0720  -4.7620  -1.1154   0.3445   1.4419
     3.1642

          k = 0.0000 0.1443 0.0000 (  5948 PWs)   bands (ev):

   -13.6076  -9.1181  -5.8506  -4.4789  -3.6176  -0.3347   0.6892   1.2057
     1.2704

          k =-0.1250 0.2165 0.0000 (  5991 PWs)   bands (ev):

   -13.2647  -9.0850  -5.8754  -5.5656  -4.3103   0.3065   0.5485   1.4088
     1.7117

          k =-0.2500 0.2887 0.0000 (  6002 PWs)   bands (ev):

   -12.6111  -9.3145  -6.5610  -5.9668  -5.0251   0.0468   1.2054   1.3924
     2.1646

          k = 0.6250-0.2165 0.0000 (  5998 PWs)   bands (ev):

   -11.8002 -10.0465  -6.8760  -6.0820  -5.3910  -0.0443   0.5825   1.4576
     2.3865

          k = 0.5000-0.1443 0.0000 (  5998 PWs)   bands (ev):

   -11.8011 -10.0449  -6.8763  -6.0806  -5.3930  -0.0430   0.5813   1.4575
     2.3860

          k = 0.3750-0.0722 0.0000 (  6002 PWs)   bands (ev):

   -12.6120  -9.3126  -6.5591  -5.9648  -5.0308   0.0484   1.2075   1.3888
     2.1629

          k = 0.2500 0.0000 0.0000 (  5991 PWs)   bands (ev):

   -13.2652  -9.0843  -5.8747  -5.5579  -4.3205   0.3111   0.5394   1.4111
     1.7110

          k = 0.0000 0.2887 0.0000 (  6004 PWs)   bands (ev):

   -13.0974  -9.1139  -6.1306  -5.8078  -4.1854  -0.7130   1.2092   1.4696
     2.2386

          k =-0.1250 0.3609 0.0000 (  6000 PWs)   bands (ev):

   -12.6102  -9.3162  -6.5634  -5.9666  -5.0223   0.0530   1.2062   1.3899
     2.1636

          k = 0.7500-0.1443 0.0000 (  6003 PWs)   bands (ev):

   -11.8624  -9.8735  -6.5800  -6.3773  -5.8286   0.8154   1.1449   1.9155
     2.2738

          k = 0.6250-0.0722 0.0000 (  5999 PWs)   bands (ev):

   -11.2100 -10.4778  -6.7282  -6.2719  -6.2006   0.6665   1.4914   1.5605
     2.2179

          k = 0.5000 0.0000 0.0000 (  6003 PWs)   bands (ev):

   -11.8652  -9.8683  -6.5784  -6.3772  -5.8328   0.8166   1.1448   1.9119
     2.2653

          k = 0.0000 0.4330 0.0000 (  5990 PWs)   bands (ev):

   -12.3198  -9.6103  -6.8886  -5.9670  -4.6072  -1.0336   0.7099   1.4637
     3.1635

          k = 0.8750-0.0722 0.0000 (  5998 PWs)   bands (ev):

   -11.7957 -10.0538  -6.8759  -6.0838  -5.3869  -0.0380   0.5840   1.4543
     2.3869

          k = 0.7500 0.0000 0.0000 (  5999 PWs)   bands (ev):

   -11.2030 -10.4867  -6.7282  -6.2680  -6.2027   0.6674   1.4902   1.5614
     2.2228

          k = 0.0000-0.5774 0.0000 (  6034 PWs)   bands (ev):

   -11.7194 -10.2331  -6.9621  -6.0752  -4.7568  -1.1095   0.3467   1.4381
     3.1647

     the Fermi energy is    -3.1887 ev

!    total energy              =     -25.16045849 Ry
     estimated scf accuracy    <       0.00000090 Ry
     smearing contrib. (-TS)   =       0.00001848 Ry
     internal energy E=F+TS    =     -25.16047697 Ry

     The total energy is F=E-TS. E is the sum of the following terms:
     one-electron contribution =    -111.68842665 Ry
     hartree contribution      =      57.18851291 Ry
     xc contribution           =     -13.68658211 Ry
     ewald contribution        =      43.02601888 Ry

     convergence has been achieved in   5 iterations

     negative rho (up, down):  1.005E-04 0.000E+00

     Forces acting on atoms (cartesian axes, Ry/au):

     atom    1 type  2   force =     0.00000000   -0.00001154   -0.01136248
     atom    2 type  1   force =     0.00000000   -0.00109799    0.00350906
     atom    3 type  1   force =     0.00000000    0.00109792   -0.00335550
     atom    4 type  2   force =     0.00000000    0.00001160    0.01120892

     Total force =     0.016755     Total SCF correction =     0.000423

     BFGS Geometry Optimization

     number of scf cycles    =   1
     number of bfgs steps    =   0

     energy   new            =     -25.1604584909 Ry

     new trust radius        =       0.0113624902 bohr

     The maximum number of steps has been reached.

     End of BFGS Geometry Optimization

ATOMIC_POSITIONS (crystal)
H            -0.0000009155       -0.0000009155       -0.0003036077
Si           -0.0000871347       -0.0000871347        0.0750937628
Si            0.3330871294        0.3330871294        0.1109103404
H             0.3330009208        0.3330009208        0.1862995045



     Writing output data file /home/jesus/Documentos/Nanociencia_DFT/silicano.save/
     NEW-OLD atomic charge density approx. for the potential

     negative rho (up, down):  1.000E-04 0.000E+00

     Writing output data file /home/jesus/Documentos/Nanociencia_DFT/silicano.save/
 
     init_run     :      1.92s CPU      2.87s WALL (       1 calls)
     electrons    :     16.58s CPU     17.80s WALL (       1 calls)
     update_pot   :      0.54s CPU      0.54s WALL (       1 calls)
     forces       :      0.86s CPU      0.97s WALL (       1 calls)

     Called by init_run:
     wfcinit      :      0.83s CPU      1.16s WALL (       1 calls)
     potinit      :      0.28s CPU      0.40s WALL (       1 calls)
     hinit0       :      0.53s CPU      0.85s WALL (       1 calls)

     Called by electrons:
     c_bands      :     11.96s CPU     12.04s WALL (       5 calls)
     sum_band     :      2.98s CPU      3.50s WALL (       5 calls)
     v_of_rho     :      0.70s CPU      0.77s WALL (       7 calls)
     newd         :      1.43s CPU      2.21s WALL (       7 calls)
     mix_rho      :      0.06s CPU      0.07s WALL (       5 calls)

     Called by c_bands:
     init_us_2    :      0.52s CPU      0.52s WALL (     252 calls)
     cegterg      :     10.01s CPU     10.09s WALL (     105 calls)

     Called by *egterg:
     cdiaghg      :      0.08s CPU      0.28s WALL (     585 calls)
     h_psi        :      9.32s CPU      9.37s WALL (     606 calls)
     s_psi        :      0.38s CPU      0.38s WALL (     606 calls)
     g_psi        :      0.04s CPU      0.04s WALL (     480 calls)

     Called by h_psi:
     h_psi:calbec :      0.43s CPU      0.45s WALL (     606 calls)
     vloc_psi     :      8.45s CPU      8.48s WALL (     606 calls)
     add_vuspsi   :      0.39s CPU      0.39s WALL (     606 calls)

     General routines
     calbec       :      0.61s CPU      0.64s WALL (     795 calls)
     fft          :      0.31s CPU      0.49s WALL (     101 calls)
     ffts         :      0.01s CPU      0.02s WALL (      12 calls)
     fftw         :      8.62s CPU      8.64s WALL (    7229 calls)
     interpolate  :      0.04s CPU      0.05s WALL (       7 calls)
     davcio       :      0.01s CPU      0.15s WALL (      21 calls)
 
     Parallel routines
 
     PWSCF        :     20.91s CPU     24.30s WALL

 
   This run was terminated on:  23:31:19   1Apr2021            

=------------------------------------------------------------------------------=
   JOB DONE.
=------------------------------------------------------------------------------=
