
     Program PWSCF v.6.6 starts on 31Mar2021 at 17: 7:55 

     This program is part of the open-source Quantum ESPRESSO suite
     for quantum simulation of materials; please cite
         "P. Giannozzi et al., J. Phys.:Condens. Matter 21 395502 (2009);
         "P. Giannozzi et al., J. Phys.:Condens. Matter 29 465901 (2017);
          URL http://www.quantum-espresso.org", 
     in publications or presentations arising from this work. More details at
     http://www.quantum-espresso.org/quote

     Parallel version (MPI), running on     1 processors

     MPI processes distributed on     1 nodes
     Fft bands division:     nmany     =       1
     Waiting for input...
     Reading input from standard input
Warning: card &CELL ignored
Warning: card   CELL_DYNAMICS='BFGS', ignored
Warning: card   CELL_DOFREE='ALL', ignored
Warning: card / ignored

     Current dimensions of program PWSCF are:
     Max number of different atomic species (ntypx) = 10
     Max number of k-points (npk) =  40000
     Max angular momentum in pseudopotentials (lmaxx) =  3

     File /home/jesus/Documentos/Nanociencia_DFT/silicano.update deleted, as requested

     File /home/jesus/Documentos/Nanociencia_DFT/silicano.bfgs deleted, as requested
     file H.pbe-kjpaw_psl.1.0.0.UPF: wavefunction(s)  1S renormalized

     Subspace diagonalization in iterative solution of the eigenvalue problem:
     a serial algorithm will be used

     Message from routine setup:
     using ibrav=0 with symmetry is DISCOURAGED, use correct ibrav instead
 
     G-vector sticks info
     --------------------
     sticks:   dense  smooth     PW     G-vecs:    dense   smooth      PW
     Sum         745     499    163                84783    46261    8377
 


     bravais-lattice index     =            0
     lattice parameter (alat)  =       7.1810  a.u.
     unit-cell volume          =    1649.5529 (a.u.)^3
     number of atoms/cell      =            4
     number of atomic types    =            2
     number of electrons       =        10.00
     number of Kohn-Sham states=            9
     kinetic-energy cutoff     =      35.0000  Ry
     charge density cutoff     =     210.0000  Ry
     convergence threshold     =      1.0E-06
     mixing beta               =       0.7000
     number of iterations used =            8  plain     mixing
     Exchange-correlation= SLA PW PBX PBC
                           (   1   4   3   4   0   0   0)
     nstep                     =            1


     celldm(1)=   7.180959  celldm(2)=   0.000000  celldm(3)=   0.000000
     celldm(4)=   0.000000  celldm(5)=   0.000000  celldm(6)=   0.000000

     crystal axes: (cart. coord. in units of alat)
               a(1) = (   0.500000   0.866000   0.000000 )  
               a(2) = (  -0.500000   0.866000   0.000000 )  
               a(3) = (   0.000000   0.000000   5.144000 )  

     reciprocal axes: (cart. coord. in units 2 pi/alat)
               b(1) = (  1.000000  0.577367  0.000000 )  
               b(2) = ( -1.000000  0.577367  0.000000 )  
               b(3) = (  0.000000  0.000000  0.194401 )  


     PseudoPot. # 1 for Si read from file:
     /home/jesus/Nanociencia_DFT/pseudopotenciales/Si.pbe-n-rrkjus_psl.1.0.0.UPF
     MD5 check sum: fa25574f73a70a4139f2adfbefec430c
     Pseudo is Ultrasoft + core correction, Zval =  4.0
     Generated using "atomic" code by A. Dal Corso v.6.3
     Using radial grid of 1141 points,  6 beta functions with: 
                l(1) =   0
                l(2) =   0
                l(3) =   1
                l(4) =   1
                l(5) =   2
                l(6) =   2
     Q(r) pseudized with 0 coefficients 


     PseudoPot. # 2 for H  read from file:
     /home/jesus/Nanociencia_DFT/pseudopotenciales/H.pbe-kjpaw_psl.1.0.0.UPF
     MD5 check sum: d81a744832360e4a8af0b0b5b123bc2a
     Pseudo is Projector augmented-wave, Zval =  1.0
     Generated using "atomic" code by A. Dal Corso v.6.3MaX
     Shape of augmentation charge: PSQ
     Using radial grid of  929 points,  2 beta functions with: 
                l(1) =   0
                l(2) =   0
     Q(r) pseudized with 0 coefficients 


     atomic species   valence    mass     pseudopotential
        Si             4.00    28.08550     Si( 1.00)
        H              1.00     1.00800     H ( 1.00)

      2 Sym. Ops. (no inversion) found



   Cartesian axes

     site n.     atom                  positions (alat units)
         1           H   tau(   1) = (   0.0000000   0.0000000   0.0000000  )
         2           Si  tau(   2) = (   0.0000000   0.0000000   0.3858000  )
         3           Si  tau(   3) = (   0.0000000   0.5767560   0.5709840  )
         4           H   tau(   4) = (   0.0000000   0.5767560   0.9567840  )

     number of k points=    21  Methfessel-Paxton smearing, width (Ry)=  0.0100
                       cart. coord. in units 2pi/alat
        k(    1) = (   0.0000000   0.0000000   0.0000000), wk =   0.0312500
        k(    2) = (  -0.1250000   0.0721709   0.0000000), wk =   0.1250000
        k(    3) = (  -0.2500000   0.1443418   0.0000000), wk =   0.1250000
        k(    4) = (  -0.3750000   0.2165127   0.0000000), wk =   0.1250000
        k(    5) = (   0.5000000  -0.2886836   0.0000000), wk =   0.0625000
        k(    6) = (   0.0000000   0.1443418   0.0000000), wk =   0.0625000
        k(    7) = (  -0.1250000   0.2165127   0.0000000), wk =   0.1250000
        k(    8) = (  -0.2500000   0.2886836   0.0000000), wk =   0.1250000
        k(    9) = (   0.6250000  -0.2165127   0.0000000), wk =   0.1250000
        k(   10) = (   0.5000000  -0.1443418   0.0000000), wk =   0.1250000
        k(   11) = (   0.3750000  -0.0721709   0.0000000), wk =   0.1250000
        k(   12) = (   0.2500000   0.0000000   0.0000000), wk =   0.0625000
        k(   13) = (   0.0000000   0.2886836   0.0000000), wk =   0.0625000
        k(   14) = (  -0.1250000   0.3608545   0.0000000), wk =   0.1250000
        k(   15) = (   0.7500000  -0.1443418   0.0000000), wk =   0.1250000
        k(   16) = (   0.6250000  -0.0721709   0.0000000), wk =   0.1250000
        k(   17) = (   0.5000000   0.0000000   0.0000000), wk =   0.0625000
        k(   18) = (   0.0000000   0.4330254   0.0000000), wk =   0.0625000
        k(   19) = (   0.8750000  -0.0721709   0.0000000), wk =   0.1250000
        k(   20) = (   0.7500000   0.0000000   0.0000000), wk =   0.0625000
        k(   21) = (   0.0000000  -0.5773672   0.0000000), wk =   0.0312500

     Dense  grid:    84783 G-vectors     FFT dimensions: (  36,  36, 180)

     Smooth grid:    46261 G-vectors     FFT dimensions: (  27,  27, 144)

     Estimated max dynamical RAM per process >     323.29 MB

     Initial potential from superposition of free atoms

     starting charge    9.99886, renormalised to   10.00000

     negative rho (up, down):  9.436E-05 0.000E+00
     Starting wfcs are   10 randomized atomic wfcs
     Checking if some PAW data can be deallocated... 

     total cpu time spent up to now is        3.1 secs

     Self-consistent Calculation

     iteration #  1     ecut=    35.00 Ry     beta= 0.70
     Davidson diagonalization with overlap
     ethr =  1.00E-02,  avg # of iterations =  4.2

     negative rho (up, down):  7.675E-05 0.000E+00

     total cpu time spent up to now is        7.7 secs

     total energy              =     -25.14453039 Ry
     estimated scf accuracy    <       0.18143903 Ry

     iteration #  2     ecut=    35.00 Ry     beta= 0.70
     Davidson diagonalization with overlap
     ethr =  1.81E-03,  avg # of iterations =  1.7

     negative rho (up, down):  9.326E-05 0.000E+00

     total cpu time spent up to now is       11.3 secs

     total energy              =     -25.15566532 Ry
     estimated scf accuracy    <       0.00444237 Ry

     iteration #  3     ecut=    35.00 Ry     beta= 0.70
     Davidson diagonalization with overlap
     ethr =  4.44E-05,  avg # of iterations =  8.6

     negative rho (up, down):  9.587E-05 0.000E+00

     total cpu time spent up to now is       16.9 secs

     total energy              =     -25.15641420 Ry
     estimated scf accuracy    <       0.00020104 Ry

     iteration #  4     ecut=    35.00 Ry     beta= 0.70
     Davidson diagonalization with overlap
     ethr =  2.01E-06,  avg # of iterations =  5.8

     negative rho (up, down):  9.818E-05 0.000E+00

     total cpu time spent up to now is       21.7 secs

     total energy              =     -25.15644863 Ry
     estimated scf accuracy    <       0.00001914 Ry

     iteration #  5     ecut=    35.00 Ry     beta= 0.70
     Davidson diagonalization with overlap
     ethr =  1.91E-07,  avg # of iterations =  2.0

     negative rho (up, down):  9.844E-05 0.000E+00

     total cpu time spent up to now is       25.3 secs

     total energy              =     -25.15645113 Ry
     estimated scf accuracy    <       0.00000120 Ry

     iteration #  6     ecut=    35.00 Ry     beta= 0.70
     Davidson diagonalization with overlap
     ethr =  1.20E-08,  avg # of iterations =  2.0

     negative rho (up, down):  9.884E-05 0.000E+00

     total cpu time spent up to now is       29.0 secs

     End of self-consistent calculation

          k = 0.0000 0.0000 0.0000 (  5793 PWs)   bands (ev):

   -13.8851  -9.1890  -5.8109  -3.1979  -3.1823  -0.6809   0.7886   0.8053
     1.0055

          k =-0.1250 0.0722 0.0000 (  5777 PWs)   bands (ev):

   -13.7048  -9.1324  -5.8070  -4.3803  -3.5281  -0.1767   0.8191   1.3492
     1.4545

          k =-0.2500 0.1443 0.0000 (  5762 PWs)   bands (ev):

   -13.1774  -9.0991  -6.1005  -5.7567  -4.1155  -0.5955   1.3388   1.5887
     2.3411

          k =-0.3750 0.2165 0.0000 (  5780 PWs)   bands (ev):

   -12.3723  -9.5807  -6.9027  -5.9204  -4.5505  -0.9290   0.7905   1.6255
     3.3683

          k = 0.5000-0.2887 0.0000 (  5782 PWs)   bands (ev):

   -11.7477 -10.2250  -6.9742  -6.0345  -4.7045  -1.0082   0.4190   1.5933
     3.3498

          k = 0.0000 0.1443 0.0000 (  5777 PWs)   bands (ev):

   -13.7046  -9.1325  -5.8073  -4.3883  -3.5188  -0.1732   0.8222   1.3494
     1.4445

          k =-0.1250 0.2165 0.0000 (  5773 PWs)   bands (ev):

   -13.3499  -9.0803  -5.8306  -5.5097  -4.2450   0.4573   0.6947   1.5606
     1.8023

          k =-0.2500 0.2887 0.0000 (  5750 PWs)   bands (ev):

   -12.6727  -9.2834  -6.5588  -5.9246  -4.9848   0.1827   1.3186   1.5322
     2.3096

          k = 0.6250-0.2165 0.0000 (  5767 PWs)   bands (ev):

   -11.8281 -10.0325  -6.8876  -6.0448  -5.3627   0.0889   0.6658   1.6120
     2.5426

          k = 0.5000-0.1443 0.0000 (  5767 PWs)   bands (ev):

   -11.8291 -10.0309  -6.8880  -6.0433  -5.3648   0.0903   0.6646   1.6118
     2.5422

          k = 0.3750-0.0722 0.0000 (  5750 PWs)   bands (ev):

   -12.6736  -9.2815  -6.5570  -5.9226  -4.9905   0.1844   1.3208   1.5275
     2.3079

          k = 0.2500 0.0000 0.0000 (  5773 PWs)   bands (ev):

   -13.3504  -9.0797  -5.8299  -5.5018  -4.2552   0.4616   0.6857   1.5628
     1.8015

          k = 0.0000 0.2887 0.0000 (  5762 PWs)   bands (ev):

   -13.1766  -9.1003  -6.1053  -5.7579  -4.1087  -0.5893   1.3388   1.5873
     2.3398

          k =-0.1250 0.3609 0.0000 (  5750 PWs)   bands (ev):

   -12.6718  -9.2850  -6.5612  -5.9245  -4.9820   0.1888   1.3197   1.5287
     2.3091

          k = 0.7500-0.1443 0.0000 (  5761 PWs)   bands (ev):

   -11.8957  -9.8424  -6.5743  -6.3839  -5.7980   0.8978   1.2746   2.0510
     2.4208

          k = 0.6250-0.0722 0.0000 (  5783 PWs)   bands (ev):

   -11.2158 -10.4662  -6.7528  -6.2662  -6.1681   0.7342   1.6208   1.6909
     2.4359

          k = 0.5000 0.0000 0.0000 (  5761 PWs)   bands (ev):

   -11.8985  -9.8371  -6.5727  -6.3843  -5.8017   0.8988   1.2749   2.0473
     2.4123

          k = 0.0000 0.4330 0.0000 (  5780 PWs)   bands (ev):

   -12.3696  -9.5862  -6.9037  -5.9225  -4.5449  -0.9232   0.7918   1.6227
     3.3685

          k = 0.8750-0.0722 0.0000 (  5765 PWs)   bands (ev):

   -11.8238 -10.0398  -6.8873  -6.0467  -5.3587   0.0952   0.6674   1.6083
     2.5431

          k = 0.7500 0.0000 0.0000 (  5783 PWs)   bands (ev):

   -11.2087 -10.4752  -6.7525  -6.2624  -6.1704   0.7352   1.6197   1.6918
     2.4405

          k = 0.0000-0.5774 0.0000 (  5782 PWs)   bands (ev):

   -11.7404 -10.2360  -6.9727  -6.0379  -4.6993  -1.0025   0.4213   1.5891
     3.3504

     the Fermi energy is    -3.0748 ev

!    total energy              =     -25.15645118 Ry
     estimated scf accuracy    <       0.00000044 Ry
     smearing contrib. (-TS)   =       0.00001841 Ry
     internal energy E=F+TS    =     -25.15646960 Ry

     The total energy is F=E-TS. E is the sum of the following terms:
     one-electron contribution =    -112.77686239 Ry
     hartree contribution      =      57.76862681 Ry
     xc contribution           =     -13.74010423 Ry
     ewald contribution        =      43.59215071 Ry
     one-center paw contrib.   =      -0.00028050 Ry

     convergence has been achieved in   6 iterations

     negative rho (up, down):  9.884E-05 0.000E+00

     Forces acting on atoms (cartesian axes, Ry/au):

     atom    1 type  2   force =     0.00000000   -0.00001279   -0.02541681
     atom    2 type  1   force =     0.00000000   -0.00120203    0.00578092
     atom    3 type  1   force =     0.00000000    0.00119778   -0.00575411
     atom    4 type  2   force =     0.00000000    0.00001704    0.02538999

     Total force =     0.036879     Total SCF correction =     0.001252

     BFGS Geometry Optimization

     number of scf cycles    =   1
     number of bfgs steps    =   0

     energy   new            =     -25.1564511842 Ry

     new trust radius        =       0.0254168085 bohr

     The maximum number of steps has been reached.

     End of BFGS Geometry Optimization

ATOMIC_POSITIONS (crystal)
H            -0.0000010287       -0.0000010287       -0.0006880778
Si           -0.0000966459       -0.0000966459        0.0751564998
Si            0.3330963047        0.3330963047        0.1108442261
H             0.3330013699        0.3330013699        0.1866873519



     Writing output data file /home/jesus/Documentos/Nanociencia_DFT/silicano.save/
     NEW-OLD atomic charge density approx. for the potential

     negative rho (up, down):  9.749E-05 0.000E+00

     Writing output data file /home/jesus/Documentos/Nanociencia_DFT/silicano.save/
 
     init_run     :      2.05s CPU      2.26s WALL (       1 calls)
     electrons    :     24.41s CPU     25.93s WALL (       1 calls)
     update_pot   :      0.56s CPU      0.56s WALL (       1 calls)
     forces       :      1.04s CPU      1.13s WALL (       1 calls)

     Called by init_run:
     wfcinit      :      0.97s CPU      0.99s WALL (       1 calls)
     potinit      :      0.28s CPU      0.31s WALL (       1 calls)
     hinit0       :      0.50s CPU      0.52s WALL (       1 calls)

     Called by electrons:
     c_bands      :     17.50s CPU     17.56s WALL (       6 calls)
     sum_band     :      4.53s CPU      5.25s WALL (       6 calls)
     v_of_rho     :      0.92s CPU      0.98s WALL (       8 calls)
     newd         :      1.98s CPU      2.91s WALL (       8 calls)
     PAW_pot      :      0.01s CPU      0.01s WALL (       9 calls)
     mix_rho      :      0.10s CPU      0.10s WALL (       6 calls)

     Called by c_bands:
     init_us_2    :      0.71s CPU      0.72s WALL (     315 calls)
     cegterg      :     14.98s CPU     15.03s WALL (     126 calls)

     Called by *egterg:
     cdiaghg      :      0.11s CPU      0.11s WALL (     636 calls)
     h_psi        :     13.83s CPU     13.88s WALL (     657 calls)
     s_psi        :      0.53s CPU      0.54s WALL (     657 calls)
     g_psi        :      0.06s CPU      0.06s WALL (     510 calls)

     Called by h_psi:
     h_psi:calbec :      0.55s CPU      0.56s WALL (     657 calls)
     vloc_psi     :     12.66s CPU     12.70s WALL (     657 calls)
     add_vuspsi   :      0.54s CPU      0.54s WALL (     657 calls)

     General routines
     calbec       :      0.80s CPU      0.81s WALL (     888 calls)
     fft          :      0.41s CPU      0.43s WALL (     114 calls)
     ffts         :      0.02s CPU      0.02s WALL (      14 calls)
     fftw         :     12.44s CPU     12.49s WALL (    8374 calls)
     interpolate  :      0.06s CPU      0.06s WALL (       8 calls)
     davcio       :      0.00s CPU      0.01s WALL (      21 calls)
 
     Parallel routines
 
     PWSCF        :     29.21s CPU     31.19s WALL

 
   This run was terminated on:  17: 8:27  31Mar2021            

=------------------------------------------------------------------------------=
   JOB DONE.
=------------------------------------------------------------------------------=
