
     Program PWSCF v.6.6 starts on 31Mar2021 at 17: 5:28 

     This program is part of the open-source Quantum ESPRESSO suite
     for quantum simulation of materials; please cite
         "P. Giannozzi et al., J. Phys.:Condens. Matter 21 395502 (2009);
         "P. Giannozzi et al., J. Phys.:Condens. Matter 29 465901 (2017);
          URL http://www.quantum-espresso.org", 
     in publications or presentations arising from this work. More details at
     http://www.quantum-espresso.org/quote

     Parallel version (MPI), running on     1 processors

     MPI processes distributed on     1 nodes
     Fft bands division:     nmany     =       1
     Waiting for input...
     Reading input from standard input
Warning: card &CELL ignored
Warning: card   CELL_DYNAMICS='BFGS', ignored
Warning: card   CELL_DOFREE='ALL', ignored
Warning: card / ignored

     Current dimensions of program PWSCF are:
     Max number of different atomic species (ntypx) = 10
     Max number of k-points (npk) =  40000
     Max angular momentum in pseudopotentials (lmaxx) =  3

     File /home/jesus/Documentos/Nanociencia_DFT/silicano.update deleted, as requested

     File /home/jesus/Documentos/Nanociencia_DFT/silicano.bfgs deleted, as requested
     file H.pbe-kjpaw_psl.1.0.0.UPF: wavefunction(s)  1S renormalized

     Subspace diagonalization in iterative solution of the eigenvalue problem:
     a serial algorithm will be used

     Message from routine setup:
     using ibrav=0 with symmetry is DISCOURAGED, use correct ibrav instead
 
     G-vector sticks info
     --------------------
     sticks:   dense  smooth     PW     G-vecs:    dense   smooth      PW
     Sum         517     361    121                50451    27589    5383
 


     bravais-lattice index     =            0
     lattice parameter (alat)  =       6.0471  a.u.
     unit-cell volume          =     985.0661 (a.u.)^3
     number of atoms/cell      =            4
     number of atomic types    =            2
     number of electrons       =        10.00
     number of Kohn-Sham states=            9
     kinetic-energy cutoff     =      35.0000  Ry
     charge density cutoff     =     210.0000  Ry
     convergence threshold     =      1.0E-06
     mixing beta               =       0.7000
     number of iterations used =            8  plain     mixing
     Exchange-correlation= SLA PW PBX PBC
                           (   1   4   3   4   0   0   0)
     nstep                     =            1


     celldm(1)=   6.047124  celldm(2)=   0.000000  celldm(3)=   0.000000
     celldm(4)=   0.000000  celldm(5)=   0.000000  celldm(6)=   0.000000

     crystal axes: (cart. coord. in units of alat)
               a(1) = (   0.500000   0.866000   0.000000 )  
               a(2) = (  -0.500000   0.866000   0.000000 )  
               a(3) = (   0.000000   0.000000   5.144000 )  

     reciprocal axes: (cart. coord. in units 2 pi/alat)
               b(1) = (  1.000000  0.577367  0.000000 )  
               b(2) = ( -1.000000  0.577367  0.000000 )  
               b(3) = (  0.000000  0.000000  0.194401 )  


     PseudoPot. # 1 for Si read from file:
     /home/jesus/Nanociencia_DFT/pseudopotenciales/Si.pbe-n-rrkjus_psl.1.0.0.UPF
     MD5 check sum: fa25574f73a70a4139f2adfbefec430c
     Pseudo is Ultrasoft + core correction, Zval =  4.0
     Generated using "atomic" code by A. Dal Corso v.6.3
     Using radial grid of 1141 points,  6 beta functions with: 
                l(1) =   0
                l(2) =   0
                l(3) =   1
                l(4) =   1
                l(5) =   2
                l(6) =   2
     Q(r) pseudized with 0 coefficients 


     PseudoPot. # 2 for H  read from file:
     /home/jesus/Nanociencia_DFT/pseudopotenciales/H.pbe-kjpaw_psl.1.0.0.UPF
     MD5 check sum: d81a744832360e4a8af0b0b5b123bc2a
     Pseudo is Projector augmented-wave, Zval =  1.0
     Generated using "atomic" code by A. Dal Corso v.6.3MaX
     Shape of augmentation charge: PSQ
     Using radial grid of  929 points,  2 beta functions with: 
                l(1) =   0
                l(2) =   0
     Q(r) pseudized with 0 coefficients 


     atomic species   valence    mass     pseudopotential
        Si             4.00    28.08550     Si( 1.00)
        H              1.00     1.00800     H ( 1.00)

      2 Sym. Ops. (no inversion) found



   Cartesian axes

     site n.     atom                  positions (alat units)
         1           H   tau(   1) = (   0.0000000   0.0000000   0.0000000  )
         2           Si  tau(   2) = (   0.0000000   0.0000000   0.3858000  )
         3           Si  tau(   3) = (   0.0000000   0.5767560   0.5709840  )
         4           H   tau(   4) = (   0.0000000   0.5767560   0.9567840  )

     number of k points=    21  Methfessel-Paxton smearing, width (Ry)=  0.0100
                       cart. coord. in units 2pi/alat
        k(    1) = (   0.0000000   0.0000000   0.0000000), wk =   0.0312500
        k(    2) = (  -0.1250000   0.0721709   0.0000000), wk =   0.1250000
        k(    3) = (  -0.2500000   0.1443418   0.0000000), wk =   0.1250000
        k(    4) = (  -0.3750000   0.2165127   0.0000000), wk =   0.1250000
        k(    5) = (   0.5000000  -0.2886836   0.0000000), wk =   0.0625000
        k(    6) = (   0.0000000   0.1443418   0.0000000), wk =   0.0625000
        k(    7) = (  -0.1250000   0.2165127   0.0000000), wk =   0.1250000
        k(    8) = (  -0.2500000   0.2886836   0.0000000), wk =   0.1250000
        k(    9) = (   0.6250000  -0.2165127   0.0000000), wk =   0.1250000
        k(   10) = (   0.5000000  -0.1443418   0.0000000), wk =   0.1250000
        k(   11) = (   0.3750000  -0.0721709   0.0000000), wk =   0.1250000
        k(   12) = (   0.2500000   0.0000000   0.0000000), wk =   0.0625000
        k(   13) = (   0.0000000   0.2886836   0.0000000), wk =   0.0625000
        k(   14) = (  -0.1250000   0.3608545   0.0000000), wk =   0.1250000
        k(   15) = (   0.7500000  -0.1443418   0.0000000), wk =   0.1250000
        k(   16) = (   0.6250000  -0.0721709   0.0000000), wk =   0.1250000
        k(   17) = (   0.5000000   0.0000000   0.0000000), wk =   0.0625000
        k(   18) = (   0.0000000   0.4330254   0.0000000), wk =   0.0625000
        k(   19) = (   0.8750000  -0.0721709   0.0000000), wk =   0.1250000
        k(   20) = (   0.7500000   0.0000000   0.0000000), wk =   0.0625000
        k(   21) = (   0.0000000  -0.5773672   0.0000000), wk =   0.0312500

     Dense  grid:    50451 G-vectors     FFT dimensions: (  27,  27, 144)

     Smooth grid:    27589 G-vectors     FFT dimensions: (  24,  24, 120)

     Estimated max dynamical RAM per process >     191.04 MB

     Initial potential from superposition of free atoms

     starting charge    9.99886, renormalised to   10.00000

     negative rho (up, down):  5.962E-05 0.000E+00
     Starting wfcs are   10 randomized atomic wfcs
     Checking if some PAW data can be deallocated... 

     total cpu time spent up to now is        3.3 secs

     Self-consistent Calculation

     iteration #  1     ecut=    35.00 Ry     beta= 0.70
     Davidson diagonalization with overlap
     ethr =  1.00E-02,  avg # of iterations =  5.2

     negative rho (up, down):  4.697E-05 0.000E+00

     total cpu time spent up to now is        8.5 secs

     total energy              =     -24.65795167 Ry
     estimated scf accuracy    <       0.35397132 Ry

     iteration #  2     ecut=    35.00 Ry     beta= 0.70
     Davidson diagonalization with overlap
     ethr =  3.54E-03,  avg # of iterations =  2.0

     negative rho (up, down):  7.178E-05 0.000E+00

     total cpu time spent up to now is       10.6 secs

     total energy              =     -24.69260182 Ry
     estimated scf accuracy    <       0.00706687 Ry

     iteration #  3     ecut=    35.00 Ry     beta= 0.70
     Davidson diagonalization with overlap
     c_bands:  1 eigenvalues not converged
     ethr =  7.07E-05,  avg # of iterations =  8.5

     negative rho (up, down):  8.343E-05 0.000E+00

     total cpu time spent up to now is       15.2 secs

     total energy              =     -24.69414873 Ry
     estimated scf accuracy    <       0.00038440 Ry

     iteration #  4     ecut=    35.00 Ry     beta= 0.70
     Davidson diagonalization with overlap
     c_bands:  1 eigenvalues not converged
     ethr =  3.84E-06,  avg # of iterations =  7.7

     negative rho (up, down):  8.882E-05 0.000E+00

     total cpu time spent up to now is       18.7 secs

     total energy              =     -24.69422183 Ry
     estimated scf accuracy    <       0.00002739 Ry

     iteration #  5     ecut=    35.00 Ry     beta= 0.70
     Davidson diagonalization with overlap
     ethr =  2.74E-07,  avg # of iterations =  2.3

     negative rho (up, down):  8.926E-05 0.000E+00

     total cpu time spent up to now is       20.9 secs

     total energy              =     -24.69422220 Ry
     estimated scf accuracy    <       0.00004018 Ry

     iteration #  6     ecut=    35.00 Ry     beta= 0.70
     Davidson diagonalization with overlap
     ethr =  2.74E-07,  avg # of iterations =  1.6

     negative rho (up, down):  8.963E-05 0.000E+00

     total cpu time spent up to now is       23.0 secs

     End of self-consistent calculation

          k = 0.0000 0.0000 0.0000 (  3419 PWs)   bands (ev):

   -15.4059  -9.7341  -5.1498  -0.9966  -0.9816   1.4902   2.7193   2.9595
     2.9743

          k =-0.1250 0.0722 0.0000 (  3448 PWs)   bands (ev):

   -15.1334  -9.5503  -5.0984  -2.6723  -1.6095   1.7635   2.5146   2.7399
     3.5156

          k =-0.2500 0.1443 0.0000 (  3444 PWs)   bands (ev):

   -14.3283  -9.0978  -5.4876  -4.8077  -2.5539   1.1052   2.9156   3.3026
     3.8651

          k =-0.3750 0.2165 0.0000 (  3446 PWs)   bands (ev):

   -13.0521  -9.1992  -7.0306  -5.0764  -3.2026   0.5172   1.8385   3.9760
     4.8722

          k = 0.5000-0.2887 0.0000 (  3452 PWs)   bands (ev):

   -11.8884 -10.3573  -6.9708  -5.3350  -3.4265   0.2948   1.4196   3.8838
     5.9360

          k = 0.0000 0.1443 0.0000 (  3448 PWs)   bands (ev):

   -15.1333  -9.5502  -5.0985  -2.6791  -1.6014   1.7675   2.5155   2.7409
     3.5132

          k =-0.1250 0.2165 0.0000 (  3461 PWs)   bands (ev):

   -14.5940  -9.2241  -5.0720  -4.2886  -2.9502   2.4026   2.8576   3.3439
     3.3792

          k =-0.2500 0.2887 0.0000 (  3436 PWs)   bands (ev):

   -13.5452  -8.8887  -6.3234  -5.1412  -4.0523   2.0619   2.6769   3.7214
     4.1903

          k = 0.6250-0.2165 0.0000 (  3454 PWs)   bands (ev):

   -12.1357  -9.8036  -6.9370  -5.3339  -4.6282   1.5811   1.9538   3.9623
     4.8103

          k = 0.5000-0.1443 0.0000 (  3454 PWs)   bands (ev):

   -12.1364  -9.8024  -6.9376  -5.3329  -4.6291   1.5820   1.9534   3.9597
     4.8106

          k = 0.3750-0.0722 0.0000 (  3436 PWs)   bands (ev):

   -13.5457  -8.8880  -6.3221  -5.1401  -4.0554   2.0639   2.6785   3.7146
     4.1892

          k = 0.2500 0.0000 0.0000 (  3461 PWs)   bands (ev):

   -14.5942  -9.2241  -5.0718  -4.2813  -2.9589   2.4036   2.8546   3.3389
     3.3800

          k = 0.0000 0.2887 0.0000 (  3444 PWs)   bands (ev):

   -14.3279  -9.0979  -5.4893  -4.8109  -2.5482   1.1105   2.9148   3.3010
     3.8656

          k =-0.1250 0.3609 0.0000 (  3436 PWs)   bands (ev):

   -13.5448  -8.8894  -6.3242  -5.1425  -4.0499   2.0676   2.6777   3.7167
     4.1901

          k = 0.7500-0.1443 0.0000 (  3436 PWs)   bands (ev):

   -12.3091  -9.2383  -6.4745  -6.3505  -5.0010   2.0113   2.8902   4.0243
     4.9655

          k = 0.6250-0.0722 0.0000 (  3426 PWs)   bands (ev):

   -11.1259 -10.1907  -7.1263  -5.8964  -5.5035   1.5822   3.3978   3.4971
     5.4674

          k = 0.5000 0.0000 0.0000 (  3436 PWs)   bands (ev):

   -12.3107  -9.2342  -6.4785  -6.3499  -4.9998   2.0095   2.8918   4.0223
     4.9580

          k = 0.0000 0.4330 0.0000 (  3446 PWs)   bands (ev):

   -13.0506  -9.2025  -7.0291  -5.0805  -3.1979   0.5210   1.8406   3.9715
     4.8730

          k = 0.8750-0.0722 0.0000 (  3454 PWs)   bands (ev):

   -12.1329  -9.8089  -6.9335  -5.3383  -4.6254   1.5860   1.9568   3.9569
     4.8098

          k = 0.7500 0.0000 0.0000 (  3426 PWs)   bands (ev):

   -11.1200 -10.1990  -7.1232  -5.8927  -5.5084   1.5846   3.3962   3.4985
     5.4692

          k = 0.0000-0.5774 0.0000 (  3452 PWs)   bands (ev):

   -11.8824 -10.3662  -6.9659  -5.3416  -3.4221   0.2976   1.4247   3.8767
     5.9378

     the Fermi energy is    -0.8738 ev

!    total energy              =     -24.69422901 Ry
     estimated scf accuracy    <       0.00000025 Ry
     smearing contrib. (-TS)   =       0.00001832 Ry
     internal energy E=F+TS    =     -24.69424734 Ry

     The total energy is F=E-TS. E is the sum of the following terms:
     one-electron contribution =    -127.81460703 Ry
     hartree contribution      =      65.90181323 Ry
     xc contribution           =     -14.54688628 Ry
     ewald contribution        =      51.76567897 Ry
     one-center paw contrib.   =      -0.00024623 Ry

     convergence has been achieved in   6 iterations

     negative rho (up, down):  8.963E-05 0.000E+00

     Forces acting on atoms (cartesian axes, Ry/au):

     atom    1 type  2   force =     0.00000000   -0.00004075   -0.32562177
     atom    2 type  1   force =     0.00000000   -0.00331317    0.01181534
     atom    3 type  1   force =     0.00000000    0.00330211   -0.01184463
     atom    4 type  2   force =     0.00000000    0.00005181    0.32565107

     Total force =     0.460847     Total SCF correction =     0.000169

     BFGS Geometry Optimization

     number of scf cycles    =   1
     number of bfgs steps    =   0

     energy   new            =     -24.6942290147 Ry

     new trust radius        =       0.3256510704 bohr

     The maximum number of steps has been reached.

     End of BFGS Geometry Optimization

ATOMIC_POSITIONS (crystal)
H            -0.0000038910       -0.0000038910       -0.0104679980
Si           -0.0003163348       -0.0003163348        0.0753798362
Si            0.3333152790        0.3333152790        0.1106192221
H             0.3330049468        0.3330049468        0.1964689397



     Writing output data file /home/jesus/Documentos/Nanociencia_DFT/silicano.save/
     NEW-OLD atomic charge density approx. for the potential

     negative rho (up, down):  7.437E-05 0.000E+00

     Writing output data file /home/jesus/Documentos/Nanociencia_DFT/silicano.save/
 
     init_run     :      2.01s CPU      2.22s WALL (       1 calls)
     electrons    :     18.54s CPU     19.67s WALL (       1 calls)
     update_pot   :      0.34s CPU      0.34s WALL (       1 calls)
     forces       :      0.53s CPU      0.60s WALL (       1 calls)

     Called by init_run:
     wfcinit      :      1.04s CPU      1.08s WALL (       1 calls)
     potinit      :      0.20s CPU      0.23s WALL (       1 calls)
     hinit0       :      0.50s CPU      0.52s WALL (       1 calls)

     Called by electrons:
     c_bands      :     13.71s CPU     13.81s WALL (       6 calls)
     sum_band     :      3.28s CPU      3.79s WALL (       6 calls)
     v_of_rho     :      0.50s CPU      0.55s WALL (       8 calls)
     newd         :      1.48s CPU      2.15s WALL (       8 calls)
     PAW_pot      :      0.01s CPU      0.01s WALL (       9 calls)
     mix_rho      :      0.06s CPU      0.06s WALL (       6 calls)

     Called by c_bands:
     init_us_2    :      0.51s CPU      0.52s WALL (     315 calls)
     cegterg      :     11.92s CPU     12.01s WALL (     126 calls)

     Called by *egterg:
     cdiaghg      :      0.13s CPU      0.14s WALL (     699 calls)
     h_psi        :     11.14s CPU     11.24s WALL (     720 calls)
     s_psi        :      0.46s CPU      0.46s WALL (     720 calls)
     g_psi        :      0.04s CPU      0.04s WALL (     573 calls)

     Called by h_psi:
     h_psi:calbec :      0.46s CPU      0.47s WALL (     720 calls)
     vloc_psi     :     10.15s CPU     10.24s WALL (     720 calls)
     add_vuspsi   :      0.46s CPU      0.47s WALL (     720 calls)

     General routines
     calbec       :      0.63s CPU      0.63s WALL (     951 calls)
     fft          :      0.23s CPU      0.25s WALL (     114 calls)
     ffts         :      0.02s CPU      0.02s WALL (      14 calls)
     fftw         :      9.51s CPU      9.60s WALL (    8482 calls)
     interpolate  :      0.04s CPU      0.04s WALL (       8 calls)
     davcio       :      0.00s CPU      0.00s WALL (      21 calls)
 
     Parallel routines
 
     PWSCF        :     22.77s CPU     24.28s WALL

 
   This run was terminated on:  17: 5:52  31Mar2021            

=------------------------------------------------------------------------------=
   JOB DONE.
=------------------------------------------------------------------------------=
