
     Program PWSCF v.6.6 starts on  1Apr2021 at 23: 2: 6 

     This program is part of the open-source Quantum ESPRESSO suite
     for quantum simulation of materials; please cite
         "P. Giannozzi et al., J. Phys.:Condens. Matter 21 395502 (2009);
         "P. Giannozzi et al., J. Phys.:Condens. Matter 29 465901 (2017);
          URL http://www.quantum-espresso.org", 
     in publications or presentations arising from this work. More details at
     http://www.quantum-espresso.org/quote

     Parallel version (MPI), running on     1 processors

     MPI processes distributed on     1 nodes
     Fft bands division:     nmany     =       1
     Waiting for input...
     Reading input from standard input
Warning: card &CELL ignored
Warning: card   CELL_DYNAMICS='BFGS', ignored
Warning: card   CELL_DOFREE='ALL', ignored
Warning: card / ignored

     Current dimensions of program PWSCF are:
     Max number of different atomic species (ntypx) = 10
     Max number of k-points (npk) =  40000
     Max angular momentum in pseudopotentials (lmaxx) =  3

     File /home/jesus/Documentos/Nanociencia_DFT/silicano.update deleted, as requested

     File /home/jesus/Documentos/Nanociencia_DFT/silicano.bfgs deleted, as requested

     Subspace diagonalization in iterative solution of the eigenvalue problem:
     a serial algorithm will be used

     Message from routine setup:
     using ibrav=0 with symmetry is DISCOURAGED, use correct ibrav instead
 
     G-vector sticks info
     --------------------
     sticks:   dense  smooth     PW     G-vecs:    dense   smooth      PW
     Sum         913     595    199               114429    62055   10939
 


     bravais-lattice index     =            0
     lattice parameter (alat)  =       7.9368  a.u.
     unit-cell volume          =    2227.2211 (a.u.)^3
     number of atoms/cell      =            4
     number of atomic types    =            2
     number of electrons       =        10.00
     number of Kohn-Sham states=            9
     kinetic-energy cutoff     =      35.0000  Ry
     charge density cutoff     =     210.0000  Ry
     convergence threshold     =      1.0E-06
     mixing beta               =       0.7000
     number of iterations used =            8  plain     mixing
     Exchange-correlation= PBE
                           (   1   4   3   4   0   0   0)
     nstep                     =            1


     celldm(1)=   7.936850  celldm(2)=   0.000000  celldm(3)=   0.000000
     celldm(4)=   0.000000  celldm(5)=   0.000000  celldm(6)=   0.000000

     crystal axes: (cart. coord. in units of alat)
               a(1) = (   0.500000   0.866000   0.000000 )  
               a(2) = (  -0.500000   0.866000   0.000000 )  
               a(3) = (   0.000000   0.000000   5.144000 )  

     reciprocal axes: (cart. coord. in units 2 pi/alat)
               b(1) = (  1.000000  0.577367  0.000000 )  
               b(2) = ( -1.000000  0.577367  0.000000 )  
               b(3) = (  0.000000  0.000000  0.194401 )  


     PseudoPot. # 1 for Si read from file:
     /home/jesus/Nanociencia_DFT/pseudopotenciales/Si.pbe-n-rrkjus_psl.1.0.0.UPF
     MD5 check sum: fa25574f73a70a4139f2adfbefec430c
     Pseudo is Ultrasoft + core correction, Zval =  4.0
     Generated using "atomic" code by A. Dal Corso v.6.3
     Using radial grid of 1141 points,  6 beta functions with: 
                l(1) =   0
                l(2) =   0
                l(3) =   1
                l(4) =   1
                l(5) =   2
                l(6) =   2
     Q(r) pseudized with 0 coefficients 


     PseudoPot. # 2 for H  read from file:
     /home/jesus/Nanociencia_DFT/pseudopotenciales/H.pbe-rrkjus_psl.1.0.0.UPF
     MD5 check sum: 3f4114867bd07edc7f1424d066fc1888
     Pseudo is Ultrasoft, Zval =  1.0
     Generated using "atomic" code by A. Dal Corso v.6.3MaX
     Using radial grid of  929 points,  2 beta functions with: 
                l(1) =   0
                l(2) =   0
     Q(r) pseudized with 0 coefficients 


     atomic species   valence    mass     pseudopotential
        Si             4.00    28.08550     Si( 1.00)
        H              1.00     1.00800     H ( 1.00)

      2 Sym. Ops. (no inversion) found



   Cartesian axes

     site n.     atom                  positions (alat units)
         1           H   tau(   1) = (   0.0000000   0.0000000   0.0000000  )
         2           Si  tau(   2) = (   0.0000000   0.0000000   0.3858000  )
         3           Si  tau(   3) = (   0.0000000   0.5767560   0.5709840  )
         4           H   tau(   4) = (   0.0000000   0.5767560   0.9567840  )

     number of k points=    21  Methfessel-Paxton smearing, width (Ry)=  0.0100
                       cart. coord. in units 2pi/alat
        k(    1) = (   0.0000000   0.0000000   0.0000000), wk =   0.0312500
        k(    2) = (  -0.1250000   0.0721709   0.0000000), wk =   0.1250000
        k(    3) = (  -0.2500000   0.1443418   0.0000000), wk =   0.1250000
        k(    4) = (  -0.3750000   0.2165127   0.0000000), wk =   0.1250000
        k(    5) = (   0.5000000  -0.2886836   0.0000000), wk =   0.0625000
        k(    6) = (   0.0000000   0.1443418   0.0000000), wk =   0.0625000
        k(    7) = (  -0.1250000   0.2165127   0.0000000), wk =   0.1250000
        k(    8) = (  -0.2500000   0.2886836   0.0000000), wk =   0.1250000
        k(    9) = (   0.6250000  -0.2165127   0.0000000), wk =   0.1250000
        k(   10) = (   0.5000000  -0.1443418   0.0000000), wk =   0.1250000
        k(   11) = (   0.3750000  -0.0721709   0.0000000), wk =   0.1250000
        k(   12) = (   0.2500000   0.0000000   0.0000000), wk =   0.0625000
        k(   13) = (   0.0000000   0.2886836   0.0000000), wk =   0.0625000
        k(   14) = (  -0.1250000   0.3608545   0.0000000), wk =   0.1250000
        k(   15) = (   0.7500000  -0.1443418   0.0000000), wk =   0.1250000
        k(   16) = (   0.6250000  -0.0721709   0.0000000), wk =   0.1250000
        k(   17) = (   0.5000000   0.0000000   0.0000000), wk =   0.0625000
        k(   18) = (   0.0000000   0.4330254   0.0000000), wk =   0.0625000
        k(   19) = (   0.8750000  -0.0721709   0.0000000), wk =   0.1250000
        k(   20) = (   0.7500000   0.0000000   0.0000000), wk =   0.0625000
        k(   21) = (   0.0000000  -0.5773672   0.0000000), wk =   0.0312500

     Dense  grid:   114429 G-vectors     FFT dimensions: (  40,  40, 192)

     Smooth grid:    62055 G-vectors     FFT dimensions: (  30,  30, 160)

     Estimated max dynamical RAM per process >     435.01 MB

     Initial potential from superposition of free atoms

     starting charge    9.99886, renormalised to   10.00000

     negative rho (up, down):  1.216E-04 0.000E+00
     Starting wfcs are   10 randomized atomic wfcs

     total cpu time spent up to now is        3.7 secs

     Self-consistent Calculation

     iteration #  1     ecut=    35.00 Ry     beta= 0.70
     Davidson diagonalization with overlap
     ethr =  1.00E-02,  avg # of iterations =  2.7

     negative rho (up, down):  9.593E-05 0.000E+00

     total cpu time spent up to now is        8.9 secs

     total energy              =     -25.10823728 Ry
     estimated scf accuracy    <       0.12559336 Ry

     iteration #  2     ecut=    35.00 Ry     beta= 0.70
     Davidson diagonalization with overlap
     ethr =  1.26E-03,  avg # of iterations =  1.9

     negative rho (up, down):  1.063E-04 0.000E+00

     total cpu time spent up to now is       13.0 secs

     total energy              =     -25.11667390 Ry
     estimated scf accuracy    <       0.00675324 Ry

     iteration #  3     ecut=    35.00 Ry     beta= 0.70
     Davidson diagonalization with overlap
     ethr =  6.75E-05,  avg # of iterations =  6.4

     negative rho (up, down):  1.092E-04 0.000E+00

     total cpu time spent up to now is       18.9 secs

     total energy              =     -25.11793686 Ry
     estimated scf accuracy    <       0.00093524 Ry

     iteration #  4     ecut=    35.00 Ry     beta= 0.70
     Davidson diagonalization with overlap
     ethr =  9.35E-06,  avg # of iterations =  3.1

     negative rho (up, down):  1.121E-04 0.000E+00

     total cpu time spent up to now is       23.4 secs

     total energy              =     -25.11808332 Ry
     estimated scf accuracy    <       0.00002477 Ry

     iteration #  5     ecut=    35.00 Ry     beta= 0.70
     Davidson diagonalization with overlap
     ethr =  2.48E-07,  avg # of iterations =  3.1

     negative rho (up, down):  1.120E-04 0.000E+00

     total cpu time spent up to now is       28.2 secs

     total energy              =     -25.11808796 Ry
     estimated scf accuracy    <       0.00000131 Ry

     iteration #  6     ecut=    35.00 Ry     beta= 0.70
     Davidson diagonalization with overlap
     ethr =  1.31E-08,  avg # of iterations =  2.0

     negative rho (up, down):  1.119E-04 0.000E+00

     total cpu time spent up to now is       32.5 secs

     End of self-consistent calculation

          k = 0.0000 0.0000 0.0000 (  7859 PWs)   bands (ev):

   -13.1291  -9.0478  -6.0625  -3.9049  -3.8904  -2.4387  -0.2518  -0.2354
     0.0305

          k =-0.1250 0.0722 0.0000 (  7819 PWs)   bands (ev):

   -12.9906  -9.0596  -6.0677  -4.9614  -4.1358  -1.5716  -0.2157   0.1435
     0.2254

          k =-0.2500 0.1443 0.0000 (  7823 PWs)   bands (ev):

   -12.5885  -9.2131  -6.2234  -6.0452  -4.5704  -1.5661   0.3225   0.5656
     1.2061

          k =-0.3750 0.2165 0.0000 (  7791 PWs)   bands (ev):

   -11.9882  -9.7352  -6.7533  -6.1723  -4.9037  -1.8012   0.0999   0.5173
     1.8522

          k = 0.5000-0.2887 0.0000 (  7728 PWs)   bands (ev):

   -11.5522 -10.2043  -6.8388  -6.2407  -5.0233  -1.8692  -0.1620   0.5244
     1.9655

          k = 0.0000 0.1443 0.0000 (  7819 PWs)   bands (ev):

   -12.9904  -9.0599  -6.0679  -4.9686  -4.1268  -1.5710  -0.2083   0.1435
     0.2151

          k =-0.1250 0.2165 0.0000 (  7823 PWs)   bands (ev):

   -12.7192  -9.1405  -6.0943  -5.8324  -4.6324  -0.8349  -0.3405   0.2978
     1.2996

          k =-0.2500 0.2887 0.0000 (  7807 PWs)   bands (ev):

   -12.2071  -9.4927  -6.5256  -6.1647  -5.1926  -0.8874   0.3704   0.4147
     1.1716

          k = 0.6250-0.2165 0.0000 (  7754 PWs)   bands (ev):

   -11.5912 -10.1133  -6.7583  -6.2488  -5.4870  -0.9993   0.0029   0.5531
     1.3870

          k = 0.5000-0.1443 0.0000 (  7754 PWs)   bands (ev):

   -11.5922 -10.1117  -6.7584  -6.2478  -5.4888  -0.9987   0.0029   0.5540
     1.3858

          k = 0.3750-0.0722 0.0000 (  7807 PWs)   bands (ev):

   -12.2081  -9.4906  -6.5237  -6.1631  -5.1981  -0.8856   0.3703   0.4171
     1.1659

          k = 0.2500 0.0000 0.0000 (  7823 PWs)   bands (ev):

   -12.7198  -9.1394  -6.0937  -5.8257  -4.6419  -0.8294  -0.3502   0.2981
     1.3031

          k = 0.0000 0.2887 0.0000 (  7823 PWs)   bands (ev):

   -12.5875  -9.2150  -6.2282  -6.0461  -4.5637  -1.5599   0.3223   0.5675
     1.1998

          k =-0.1250 0.3609 0.0000 (  7807 PWs)   bands (ev):

   -12.2061  -9.4947  -6.5281  -6.1644  -5.1898  -0.8812   0.3697   0.4164
     1.1659

          k = 0.7500-0.1443 0.0000 (  7765 PWs)   bands (ev):

   -11.6255 -10.0251  -6.5660  -6.3507  -5.8854   0.2309   0.2666   0.6241
     1.1686

          k = 0.6250-0.0722 0.0000 (  7744 PWs)   bands (ev):

   -11.1301 -10.5132  -6.5929  -6.3356  -6.1916   0.1731   0.4169   0.7089
     0.9835

          k = 0.5000 0.0000 0.0000 (  7765 PWs)   bands (ev):

   -11.6286 -10.0200  -6.5641  -6.3486  -5.8916   0.2277   0.2679   0.6319
     1.1620

          k = 0.0000 0.4330 0.0000 (  7791 PWs)   bands (ev):

   -11.9850  -9.7410  -6.7554  -6.1736  -4.8982  -1.7946   0.1006   0.5169
     1.8503

          k = 0.8750-0.0722 0.0000 (  7754 PWs)   bands (ev):

   -11.5866 -10.1205  -6.7595  -6.2499  -5.4827  -0.9932   0.0038   0.5531
     1.3863

          k = 0.7500 0.0000 0.0000 (  7744 PWs)   bands (ev):

   -11.1232 -10.5216  -6.5946  -6.3367  -6.1874   0.1737   0.4161   0.7093
     0.9888

          k = 0.0000-0.5774 0.0000 (  7728 PWs)   bands (ev):

   -11.5450 -10.2151  -6.8392  -6.2428  -5.0183  -1.8625  -0.1610   0.5232
     1.9648

     the Fermi energy is    -3.7840 ev

!    total energy              =     -25.11808807 Ry
     estimated scf accuracy    <       0.00000027 Ry
     smearing contrib. (-TS)   =       0.00002147 Ry
     internal energy E=F+TS    =     -25.11810954 Ry

     The total energy is F=E-TS. E is the sum of the following terms:
     one-electron contribution =    -104.65196325 Ry
     hartree contribution      =      53.45033456 Ry
     xc contribution           =     -13.35699815 Ry
     ewald contribution        =      39.44051731 Ry

     convergence has been achieved in   6 iterations

     negative rho (up, down):  1.119E-04 0.000E+00

     Forces acting on atoms (cartesian axes, Ry/au):

     atom    1 type  2   force =     0.00000000    0.00000570    0.05777032
     atom    2 type  1   force =     0.00000000   -0.00059901   -0.01326279
     atom    3 type  1   force =     0.00000000    0.00059873    0.01323511
     atom    4 type  2   force =     0.00000000   -0.00000543   -0.05774263

     Total force =     0.083806     Total SCF correction =     0.000688

     BFGS Geometry Optimization

     number of scf cycles    =   1
     number of bfgs steps    =   0

     energy   new            =     -25.1180880721 Ry

     new trust radius        =       0.0577703189 bohr

     The maximum number of steps has been reached.

     End of BFGS Geometry Optimization

ATOMIC_POSITIONS (crystal)
H             0.0000004150        0.0000004150        0.0014149974
Si           -0.0000435752       -0.0000435752        0.0746751478
Si            0.3330435548        0.3330435548        0.1113241741
H             0.3329996053        0.3329996053        0.1845856807



     Writing output data file /home/jesus/Documentos/Nanociencia_DFT/silicano.save/
     NEW-OLD atomic charge density approx. for the potential

     negative rho (up, down):  1.146E-04 0.000E+00

     Writing output data file /home/jesus/Documentos/Nanociencia_DFT/silicano.save/
 
     init_run     :      2.52s CPU      2.80s WALL (       1 calls)
     electrons    :     26.94s CPU     28.77s WALL (       1 calls)
     update_pot   :      0.75s CPU      0.75s WALL (       1 calls)
     forces       :      1.14s CPU      1.28s WALL (       1 calls)

     Called by init_run:
     wfcinit      :      1.14s CPU      1.17s WALL (       1 calls)
     potinit      :      0.36s CPU      0.39s WALL (       1 calls)
     hinit0       :      0.65s CPU      0.68s WALL (       1 calls)

     Called by electrons:
     c_bands      :     19.04s CPU     19.08s WALL (       6 calls)
     sum_band     :      5.19s CPU      6.05s WALL (       6 calls)
     v_of_rho     :      1.06s CPU      1.14s WALL (       8 calls)
     newd         :      2.30s CPU      3.50s WALL (       8 calls)
     mix_rho      :      0.11s CPU      0.11s WALL (       6 calls)

     Called by c_bands:
     init_us_2    :      0.78s CPU      0.80s WALL (     294 calls)
     cegterg      :     15.89s CPU     15.92s WALL (     126 calls)

     Called by *egterg:
     cdiaghg      :      0.08s CPU      0.08s WALL (     530 calls)
     h_psi        :     14.86s CPU     14.91s WALL (     551 calls)
     s_psi        :      0.56s CPU      0.56s WALL (     551 calls)
     g_psi        :      0.06s CPU      0.06s WALL (     404 calls)

     Called by h_psi:
     h_psi:calbec :      0.60s CPU      0.60s WALL (     551 calls)
     vloc_psi     :     13.62s CPU     13.66s WALL (     551 calls)
     add_vuspsi   :      0.57s CPU      0.57s WALL (     551 calls)

     General routines
     calbec       :      0.88s CPU      0.88s WALL (     761 calls)
     fft          :      0.44s CPU      0.47s WALL (     114 calls)
     ffts         :      0.03s CPU      0.03s WALL (      14 calls)
     fftw         :     13.65s CPU     13.69s WALL (    7948 calls)
     interpolate  :      0.07s CPU      0.07s WALL (       8 calls)
     davcio       :      0.01s CPU      0.09s WALL (      21 calls)
 
     Parallel routines
 
     PWSCF        :     32.50s CPU     35.12s WALL

 
   This run was terminated on:  23: 2:42   1Apr2021            

=------------------------------------------------------------------------------=
   JOB DONE.
=------------------------------------------------------------------------------=
