
     Program PWSCF v.6.6 starts on  1Apr2021 at 23: 3:21 

     This program is part of the open-source Quantum ESPRESSO suite
     for quantum simulation of materials; please cite
         "P. Giannozzi et al., J. Phys.:Condens. Matter 21 395502 (2009);
         "P. Giannozzi et al., J. Phys.:Condens. Matter 29 465901 (2017);
          URL http://www.quantum-espresso.org", 
     in publications or presentations arising from this work. More details at
     http://www.quantum-espresso.org/quote

     Parallel version (MPI), running on     1 processors

     MPI processes distributed on     1 nodes
     Fft bands division:     nmany     =       1
     Waiting for input...
     Reading input from standard input
Warning: card &CELL ignored
Warning: card   CELL_DYNAMICS='BFGS', ignored
Warning: card   CELL_DOFREE='ALL', ignored
Warning: card / ignored

     Current dimensions of program PWSCF are:
     Max number of different atomic species (ntypx) = 10
     Max number of k-points (npk) =  40000
     Max angular momentum in pseudopotentials (lmaxx) =  3

     File /home/jesus/Documentos/Nanociencia_DFT/silicano.update deleted, as requested

     File /home/jesus/Documentos/Nanociencia_DFT/silicano.bfgs deleted, as requested

     Subspace diagonalization in iterative solution of the eigenvalue problem:
     a serial algorithm will be used

     Message from routine setup:
     using ibrav=0 with symmetry is DISCOURAGED, use correct ibrav instead
 
     G-vector sticks info
     --------------------
     sticks:   dense  smooth     PW     G-vecs:    dense   smooth      PW
     Sum        1003     673    199               131555    71709   12287
 


     bravais-lattice index     =            0
     lattice parameter (alat)  =       8.3148  a.u.
     unit-cell volume          =    2560.7872 (a.u.)^3
     number of atoms/cell      =            4
     number of atomic types    =            2
     number of electrons       =        10.00
     number of Kohn-Sham states=            9
     kinetic-energy cutoff     =      35.0000  Ry
     charge density cutoff     =     210.0000  Ry
     convergence threshold     =      1.0E-06
     mixing beta               =       0.7000
     number of iterations used =            8  plain     mixing
     Exchange-correlation= PBE
                           (   1   4   3   4   0   0   0)
     nstep                     =            1


     celldm(1)=   8.314795  celldm(2)=   0.000000  celldm(3)=   0.000000
     celldm(4)=   0.000000  celldm(5)=   0.000000  celldm(6)=   0.000000

     crystal axes: (cart. coord. in units of alat)
               a(1) = (   0.500000   0.866000   0.000000 )  
               a(2) = (  -0.500000   0.866000   0.000000 )  
               a(3) = (   0.000000   0.000000   5.144000 )  

     reciprocal axes: (cart. coord. in units 2 pi/alat)
               b(1) = (  1.000000  0.577367  0.000000 )  
               b(2) = ( -1.000000  0.577367  0.000000 )  
               b(3) = (  0.000000  0.000000  0.194401 )  


     PseudoPot. # 1 for Si read from file:
     /home/jesus/Nanociencia_DFT/pseudopotenciales/Si.pbe-n-rrkjus_psl.1.0.0.UPF
     MD5 check sum: fa25574f73a70a4139f2adfbefec430c
     Pseudo is Ultrasoft + core correction, Zval =  4.0
     Generated using "atomic" code by A. Dal Corso v.6.3
     Using radial grid of 1141 points,  6 beta functions with: 
                l(1) =   0
                l(2) =   0
                l(3) =   1
                l(4) =   1
                l(5) =   2
                l(6) =   2
     Q(r) pseudized with 0 coefficients 


     PseudoPot. # 2 for H  read from file:
     /home/jesus/Nanociencia_DFT/pseudopotenciales/H.pbe-rrkjus_psl.1.0.0.UPF
     MD5 check sum: 3f4114867bd07edc7f1424d066fc1888
     Pseudo is Ultrasoft, Zval =  1.0
     Generated using "atomic" code by A. Dal Corso v.6.3MaX
     Using radial grid of  929 points,  2 beta functions with: 
                l(1) =   0
                l(2) =   0
     Q(r) pseudized with 0 coefficients 


     atomic species   valence    mass     pseudopotential
        Si             4.00    28.08550     Si( 1.00)
        H              1.00     1.00800     H ( 1.00)

      2 Sym. Ops. (no inversion) found



   Cartesian axes

     site n.     atom                  positions (alat units)
         1           H   tau(   1) = (   0.0000000   0.0000000   0.0000000  )
         2           Si  tau(   2) = (   0.0000000   0.0000000   0.3858000  )
         3           Si  tau(   3) = (   0.0000000   0.5767560   0.5709840  )
         4           H   tau(   4) = (   0.0000000   0.5767560   0.9567840  )

     number of k points=    21  Methfessel-Paxton smearing, width (Ry)=  0.0100
                       cart. coord. in units 2pi/alat
        k(    1) = (   0.0000000   0.0000000   0.0000000), wk =   0.0312500
        k(    2) = (  -0.1250000   0.0721709   0.0000000), wk =   0.1250000
        k(    3) = (  -0.2500000   0.1443418   0.0000000), wk =   0.1250000
        k(    4) = (  -0.3750000   0.2165127   0.0000000), wk =   0.1250000
        k(    5) = (   0.5000000  -0.2886836   0.0000000), wk =   0.0625000
        k(    6) = (   0.0000000   0.1443418   0.0000000), wk =   0.0625000
        k(    7) = (  -0.1250000   0.2165127   0.0000000), wk =   0.1250000
        k(    8) = (  -0.2500000   0.2886836   0.0000000), wk =   0.1250000
        k(    9) = (   0.6250000  -0.2165127   0.0000000), wk =   0.1250000
        k(   10) = (   0.5000000  -0.1443418   0.0000000), wk =   0.1250000
        k(   11) = (   0.3750000  -0.0721709   0.0000000), wk =   0.1250000
        k(   12) = (   0.2500000   0.0000000   0.0000000), wk =   0.0625000
        k(   13) = (   0.0000000   0.2886836   0.0000000), wk =   0.0625000
        k(   14) = (  -0.1250000   0.3608545   0.0000000), wk =   0.1250000
        k(   15) = (   0.7500000  -0.1443418   0.0000000), wk =   0.1250000
        k(   16) = (   0.6250000  -0.0721709   0.0000000), wk =   0.1250000
        k(   17) = (   0.5000000   0.0000000   0.0000000), wk =   0.0625000
        k(   18) = (   0.0000000   0.4330254   0.0000000), wk =   0.0625000
        k(   19) = (   0.8750000  -0.0721709   0.0000000), wk =   0.1250000
        k(   20) = (   0.7500000   0.0000000   0.0000000), wk =   0.0625000
        k(   21) = (   0.0000000  -0.5773672   0.0000000), wk =   0.0312500

     Dense  grid:   131555 G-vectors     FFT dimensions: (  40,  40, 200)

     Smooth grid:    71709 G-vectors     FFT dimensions: (  32,  32, 162)

     Estimated max dynamical RAM per process >     497.49 MB

     Initial potential from superposition of free atoms

     starting charge    9.99886, renormalised to   10.00000

     negative rho (up, down):  1.297E-04 0.000E+00
     Starting wfcs are   10 randomized atomic wfcs

     total cpu time spent up to now is        3.8 secs

     Self-consistent Calculation

     iteration #  1     ecut=    35.00 Ry     beta= 0.70
     Davidson diagonalization with overlap
     ethr =  1.00E-02,  avg # of iterations =  2.7

     negative rho (up, down):  9.363E-05 0.000E+00

     total cpu time spent up to now is        9.2 secs

     total energy              =     -25.04731736 Ry
     estimated scf accuracy    <       0.11100013 Ry

     iteration #  2     ecut=    35.00 Ry     beta= 0.70
     Davidson diagonalization with overlap
     ethr =  1.11E-03,  avg # of iterations =  2.0

     negative rho (up, down):  1.044E-04 0.000E+00

     total cpu time spent up to now is       13.6 secs

     total energy              =     -25.05678174 Ry
     estimated scf accuracy    <       0.01101747 Ry

     iteration #  3     ecut=    35.00 Ry     beta= 0.70
     Davidson diagonalization with overlap
     ethr =  1.10E-04,  avg # of iterations =  5.2

     negative rho (up, down):  1.100E-04 0.000E+00

     total cpu time spent up to now is       19.2 secs

     total energy              =     -25.05923212 Ry
     estimated scf accuracy    <       0.00175620 Ry

     iteration #  4     ecut=    35.00 Ry     beta= 0.70
     Davidson diagonalization with overlap
     ethr =  1.76E-05,  avg # of iterations =  2.7

     negative rho (up, down):  1.128E-04 0.000E+00

     total cpu time spent up to now is       23.8 secs

     total energy              =     -25.05946716 Ry
     estimated scf accuracy    <       0.00002396 Ry

     iteration #  5     ecut=    35.00 Ry     beta= 0.70
     Davidson diagonalization with overlap
     ethr =  2.40E-07,  avg # of iterations =  4.1

     negative rho (up, down):  1.129E-04 0.000E+00

     total cpu time spent up to now is       29.5 secs

     total energy              =     -25.05947977 Ry
     estimated scf accuracy    <       0.00000690 Ry

     iteration #  6     ecut=    35.00 Ry     beta= 0.70
     Davidson diagonalization with overlap
     ethr =  6.90E-08,  avg # of iterations =  1.4

     negative rho (up, down):  1.130E-04 0.000E+00

     total cpu time spent up to now is       33.7 secs

     total energy              =     -25.05948010 Ry
     estimated scf accuracy    <       0.00000156 Ry

     iteration #  7     ecut=    35.00 Ry     beta= 0.70
     Davidson diagonalization with overlap
     ethr =  1.56E-08,  avg # of iterations =  2.0

     negative rho (up, down):  1.130E-04 0.000E+00

     total cpu time spent up to now is       38.1 secs

     End of self-consistent calculation

          k = 0.0000 0.0000 0.0000 (  8943 PWs)   bands (ev):

   -12.8286  -9.0485  -6.1499  -4.1441  -4.1304  -3.3149  -0.6973  -0.6813
    -0.4251

          k =-0.1250 0.0722 0.0000 (  8937 PWs)   bands (ev):

   -12.7072  -9.0893  -6.1566  -5.1846  -4.3392  -2.3448  -0.7078  -0.3505
    -0.2924

          k =-0.2500 0.1443 0.0000 (  8916 PWs)   bands (ev):

   -12.3556  -9.3058  -6.2595  -6.1326  -4.7145  -2.0846  -0.2559   0.0039
     0.5465

          k =-0.3750 0.2165 0.0000 (  8946 PWs)   bands (ev):

   -11.8359  -9.8183  -6.6844  -6.2489  -5.0067  -2.2539  -0.3278   0.0966
     1.1674

          k = 0.5000-0.2887 0.0000 (  8974 PWs)   bands (ev):

   -11.4677 -10.2247  -6.7667  -6.3021  -5.1123  -2.3175  -0.4785   0.0816
     1.3199

          k = 0.0000 0.1443 0.0000 (  8937 PWs)   bands (ev):

   -12.7070  -9.0897  -6.1568  -5.1911  -4.3305  -2.3454  -0.6993  -0.3504
    -0.3026

          k =-0.1250 0.2165 0.0000 (  8918 PWs)   bands (ev):

   -12.4695  -9.2185  -6.1811  -5.9359  -4.7566  -1.6061  -0.7857  -0.2431
     0.5502

          k =-0.2500 0.2887 0.0000 (  8950 PWs)   bands (ev):

   -12.0236  -9.6016  -6.4999  -6.2399  -5.2434  -1.4680  -0.2748  -0.0360
     0.7197

          k = 0.6250-0.2165 0.0000 (  8972 PWs)   bands (ev):

   -11.4947 -10.1631  -6.6953  -6.3090  -5.5044  -1.5725  -0.3692   0.1361
     0.8523

          k = 0.5000-0.1443 0.0000 (  8972 PWs)   bands (ev):

   -11.4957 -10.1616  -6.6952  -6.3081  -5.5062  -1.5719  -0.3691   0.1373
     0.8502

          k = 0.3750-0.0722 0.0000 (  8950 PWs)   bands (ev):

   -12.0246  -9.5995  -6.4981  -6.2386  -5.2486  -1.4655  -0.2758  -0.0349
     0.7141

          k = 0.2500 0.0000 0.0000 (  8918 PWs)   bands (ev):

   -12.4702  -9.2172  -6.1806  -5.9299  -4.7655  -1.6016  -0.7954  -0.2428
     0.5552

          k = 0.0000 0.2887 0.0000 (  8916 PWs)   bands (ev):

   -12.3546  -9.3079  -6.2636  -6.1337  -4.7080  -2.0792  -0.2558   0.0062
     0.5400

          k =-0.1250 0.3609 0.0000 (  8950 PWs)   bands (ev):

   -12.0225  -9.6036  -6.5024  -6.2396  -5.2407  -1.4621  -0.2746  -0.0359
     0.7149

          k = 0.7500-0.1443 0.0000 (  9000 PWs)   bands (ev):

   -11.5187 -10.1041  -6.5482  -6.3661  -5.8509  -0.3911  -0.3093  -0.0068
     0.7285

          k = 0.6250-0.0722 0.0000 (  8986 PWs)   bands (ev):

   -11.0921 -10.5370  -6.5566  -6.3794  -6.1032  -0.3715  -0.2160   0.2801
     0.5296

          k = 0.5000 0.0000 0.0000 (  9000 PWs)   bands (ev):

   -11.5218 -10.0992  -6.5464  -6.3641  -5.8569  -0.3880  -0.3138  -0.0018
     0.7218

          k = 0.0000 0.4330 0.0000 (  8946 PWs)   bands (ev):

   -11.8327  -9.8241  -6.6869  -6.2498  -5.0015  -2.2473  -0.3275   0.0975
     1.1647

          k = 0.8750-0.0722 0.0000 (  8972 PWs)   bands (ev):

   -11.4902 -10.1700  -6.6969  -6.3097  -5.5003  -1.5669  -0.3686   0.1376
     0.8504

          k = 0.7500 0.0000 0.0000 (  8986 PWs)   bands (ev):

   -11.0855 -10.5449  -6.5584  -6.3802  -6.0994  -0.3712  -0.2151   0.2798
     0.5337

          k = 0.0000-0.5774 0.0000 (  8978 PWs)   bands (ev):

   -11.4608 -10.2349  -6.7678  -6.3037  -5.1074  -2.3108  -0.4779   0.0818
     1.3185

     the Fermi energy is    -4.0274 ev

!    total energy              =     -25.05948040 Ry
     estimated scf accuracy    <       0.00000004 Ry
     smearing contrib. (-TS)   =       0.00002788 Ry
     internal energy E=F+TS    =     -25.05950828 Ry

     The total energy is F=E-TS. E is the sum of the following terms:
     one-electron contribution =    -101.05253403 Ry
     hartree contribution      =      51.54789954 Ry
     xc contribution           =     -13.20264031 Ry
     ewald contribution        =      37.64776652 Ry

     convergence has been achieved in   7 iterations

     negative rho (up, down):  1.130E-04 0.000E+00

     Forces acting on atoms (cartesian axes, Ry/au):

     atom    1 type  2   force =     0.00000000    0.00001503    0.07995742
     atom    2 type  1   force =     0.00000000   -0.00041192   -0.02208675
     atom    3 type  1   force =     0.00000000    0.00041052    0.02197717
     atom    4 type  2   force =     0.00000000   -0.00001363   -0.07984783

     Total force =     0.117218     Total SCF correction =     0.000162

     BFGS Geometry Optimization

     number of scf cycles    =   1
     number of bfgs steps    =   0

     energy   new            =     -25.0594804006 Ry

     new trust radius        =       0.0799574205 bohr

     The maximum number of steps has been reached.

     End of BFGS Geometry Optimization

ATOMIC_POSITIONS (crystal)
H             0.0000010434        0.0000010434        0.0018694173
Si           -0.0000286031       -0.0000286031        0.0744836081
Si            0.3330285062        0.3330285062        0.1115138298
H             0.3329990535        0.3329990535        0.1841331448



     Writing output data file /home/jesus/Documentos/Nanociencia_DFT/silicano.save/
     NEW-OLD atomic charge density approx. for the potential

     negative rho (up, down):  1.165E-04 0.000E+00

     Writing output data file /home/jesus/Documentos/Nanociencia_DFT/silicano.save/
 
     init_run     :      2.66s CPU      2.90s WALL (       1 calls)
     electrons    :     31.81s CPU     34.29s WALL (       1 calls)
     update_pot   :      0.79s CPU      0.80s WALL (       1 calls)
     forces       :      1.30s CPU      1.47s WALL (       1 calls)

     Called by init_run:
     wfcinit      :      1.11s CPU      1.13s WALL (       1 calls)
     potinit      :      0.39s CPU      0.42s WALL (       1 calls)
     hinit0       :      0.68s CPU      0.71s WALL (       1 calls)

     Called by electrons:
     c_bands      :     21.75s CPU     21.81s WALL (       7 calls)
     sum_band     :      6.56s CPU      7.70s WALL (       7 calls)
     v_of_rho     :      1.22s CPU      1.30s WALL (       9 calls)
     newd         :      3.02s CPU      4.54s WALL (       9 calls)
     mix_rho      :      0.15s CPU      0.15s WALL (       7 calls)

     Called by c_bands:
     init_us_2    :      1.04s CPU      1.05s WALL (     336 calls)
     cegterg      :     17.55s CPU     17.60s WALL (     147 calls)

     Called by *egterg:
     cdiaghg      :      0.09s CPU      0.09s WALL (     569 calls)
     h_psi        :     15.98s CPU     16.03s WALL (     590 calls)
     s_psi        :      0.71s CPU      0.71s WALL (     590 calls)
     g_psi        :      0.07s CPU      0.07s WALL (     422 calls)

     Called by h_psi:
     h_psi:calbec :      0.76s CPU      0.76s WALL (     590 calls)
     vloc_psi     :     14.42s CPU     14.47s WALL (     590 calls)
     add_vuspsi   :      0.70s CPU      0.70s WALL (     590 calls)

     General routines
     calbec       :      1.11s CPU      1.12s WALL (     821 calls)
     fft          :      0.54s CPU      0.56s WALL (     127 calls)
     ffts         :      0.03s CPU      0.03s WALL (      16 calls)
     fftw         :     14.25s CPU     14.29s WALL (    8853 calls)
     interpolate  :      0.08s CPU      0.08s WALL (       9 calls)
     davcio       :      0.01s CPU      0.22s WALL (      21 calls)
 
     Parallel routines
 
     PWSCF        :     37.82s CPU     41.19s WALL

 
   This run was terminated on:  23: 4: 2   1Apr2021            

=------------------------------------------------------------------------------=
   JOB DONE.
=------------------------------------------------------------------------------=
