
     Program PWSCF v.6.6 starts on 31Mar2021 at 17:14:41 

     This program is part of the open-source Quantum ESPRESSO suite
     for quantum simulation of materials; please cite
         "P. Giannozzi et al., J. Phys.:Condens. Matter 21 395502 (2009);
         "P. Giannozzi et al., J. Phys.:Condens. Matter 29 465901 (2017);
          URL http://www.quantum-espresso.org", 
     in publications or presentations arising from this work. More details at
     http://www.quantum-espresso.org/quote

     Parallel version (MPI), running on     1 processors

     MPI processes distributed on     1 nodes
     Fft bands division:     nmany     =       1
     Waiting for input...
     Reading input from standard input
Warning: card &CELL ignored
Warning: card   CELL_DYNAMICS='BFGS', ignored
Warning: card   CELL_DOFREE='ALL', ignored
Warning: card / ignored

     Current dimensions of program PWSCF are:
     Max number of different atomic species (ntypx) = 10
     Max number of k-points (npk) =  40000
     Max angular momentum in pseudopotentials (lmaxx) =  3

     File /home/jesus/Documentos/Nanociencia_DFT/silicano.update deleted, as requested

     File /home/jesus/Documentos/Nanociencia_DFT/silicano.bfgs deleted, as requested
     file H.pbe-kjpaw_psl.1.0.0.UPF: wavefunction(s)  1S renormalized

     Subspace diagonalization in iterative solution of the eigenvalue problem:
     a serial algorithm will be used

     Message from routine setup:
     using ibrav=0 with symmetry is DISCOURAGED, use correct ibrav instead
 
     G-vector sticks info
     --------------------
     sticks:   dense  smooth     PW     G-vecs:    dense   smooth      PW
     Sum        1147     757    241               160489    87349   14747
 


     bravais-lattice index     =            0
     lattice parameter (alat)  =       8.8817  a.u.
     unit-cell volume          =    3121.1097 (a.u.)^3
     number of atoms/cell      =            4
     number of atomic types    =            2
     number of electrons       =        10.00
     number of Kohn-Sham states=            9
     kinetic-energy cutoff     =      35.0000  Ry
     charge density cutoff     =     210.0000  Ry
     convergence threshold     =      1.0E-06
     mixing beta               =       0.7000
     number of iterations used =            8  plain     mixing
     Exchange-correlation= SLA PW PBX PBC
                           (   1   4   3   4   0   0   0)
     nstep                     =            1


     celldm(1)=   8.881713  celldm(2)=   0.000000  celldm(3)=   0.000000
     celldm(4)=   0.000000  celldm(5)=   0.000000  celldm(6)=   0.000000

     crystal axes: (cart. coord. in units of alat)
               a(1) = (   0.500000   0.866000   0.000000 )  
               a(2) = (  -0.500000   0.866000   0.000000 )  
               a(3) = (   0.000000   0.000000   5.144000 )  

     reciprocal axes: (cart. coord. in units 2 pi/alat)
               b(1) = (  1.000000  0.577367  0.000000 )  
               b(2) = ( -1.000000  0.577367  0.000000 )  
               b(3) = (  0.000000  0.000000  0.194401 )  


     PseudoPot. # 1 for Si read from file:
     /home/jesus/Nanociencia_DFT/pseudopotenciales/Si.pbe-n-rrkjus_psl.1.0.0.UPF
     MD5 check sum: fa25574f73a70a4139f2adfbefec430c
     Pseudo is Ultrasoft + core correction, Zval =  4.0
     Generated using "atomic" code by A. Dal Corso v.6.3
     Using radial grid of 1141 points,  6 beta functions with: 
                l(1) =   0
                l(2) =   0
                l(3) =   1
                l(4) =   1
                l(5) =   2
                l(6) =   2
     Q(r) pseudized with 0 coefficients 


     PseudoPot. # 2 for H  read from file:
     /home/jesus/Nanociencia_DFT/pseudopotenciales/H.pbe-kjpaw_psl.1.0.0.UPF
     MD5 check sum: d81a744832360e4a8af0b0b5b123bc2a
     Pseudo is Projector augmented-wave, Zval =  1.0
     Generated using "atomic" code by A. Dal Corso v.6.3MaX
     Shape of augmentation charge: PSQ
     Using radial grid of  929 points,  2 beta functions with: 
                l(1) =   0
                l(2) =   0
     Q(r) pseudized with 0 coefficients 


     atomic species   valence    mass     pseudopotential
        Si             4.00    28.08550     Si( 1.00)
        H              1.00     1.00800     H ( 1.00)

      2 Sym. Ops. (no inversion) found



   Cartesian axes

     site n.     atom                  positions (alat units)
         1           H   tau(   1) = (   0.0000000   0.0000000   0.0000000  )
         2           Si  tau(   2) = (   0.0000000   0.0000000   0.3858000  )
         3           Si  tau(   3) = (   0.0000000   0.5767560   0.5709840  )
         4           H   tau(   4) = (   0.0000000   0.5767560   0.9567840  )

     number of k points=    21  Methfessel-Paxton smearing, width (Ry)=  0.0100
                       cart. coord. in units 2pi/alat
        k(    1) = (   0.0000000   0.0000000   0.0000000), wk =   0.0312500
        k(    2) = (  -0.1250000   0.0721709   0.0000000), wk =   0.1250000
        k(    3) = (  -0.2500000   0.1443418   0.0000000), wk =   0.1250000
        k(    4) = (  -0.3750000   0.2165127   0.0000000), wk =   0.1250000
        k(    5) = (   0.5000000  -0.2886836   0.0000000), wk =   0.0625000
        k(    6) = (   0.0000000   0.1443418   0.0000000), wk =   0.0625000
        k(    7) = (  -0.1250000   0.2165127   0.0000000), wk =   0.1250000
        k(    8) = (  -0.2500000   0.2886836   0.0000000), wk =   0.1250000
        k(    9) = (   0.6250000  -0.2165127   0.0000000), wk =   0.1250000
        k(   10) = (   0.5000000  -0.1443418   0.0000000), wk =   0.1250000
        k(   11) = (   0.3750000  -0.0721709   0.0000000), wk =   0.1250000
        k(   12) = (   0.2500000   0.0000000   0.0000000), wk =   0.0625000
        k(   13) = (   0.0000000   0.2886836   0.0000000), wk =   0.0625000
        k(   14) = (  -0.1250000   0.3608545   0.0000000), wk =   0.1250000
        k(   15) = (   0.7500000  -0.1443418   0.0000000), wk =   0.1250000
        k(   16) = (   0.6250000  -0.0721709   0.0000000), wk =   0.1250000
        k(   17) = (   0.5000000   0.0000000   0.0000000), wk =   0.0625000
        k(   18) = (   0.0000000   0.4330254   0.0000000), wk =   0.0625000
        k(   19) = (   0.8750000  -0.0721709   0.0000000), wk =   0.1250000
        k(   20) = (   0.7500000   0.0000000   0.0000000), wk =   0.0625000
        k(   21) = (   0.0000000  -0.5773672   0.0000000), wk =   0.0312500

     Dense  grid:   160489 G-vectors     FFT dimensions: (  45,  45, 216)

     Smooth grid:    87349 G-vectors     FFT dimensions: (  36,  36, 180)

     Estimated max dynamical RAM per process >     609.58 MB

     Initial potential from superposition of free atoms

     starting charge    9.99886, renormalised to   10.00000

     negative rho (up, down):  1.511E-04 0.000E+00
     Starting wfcs are   10 randomized atomic wfcs
     Checking if some PAW data can be deallocated... 

     total cpu time spent up to now is        5.7 secs

     Self-consistent Calculation

     iteration #  1     ecut=    35.00 Ry     beta= 0.70
     Davidson diagonalization with overlap
     ethr =  1.00E-02,  avg # of iterations =  2.6

     negative rho (up, down):  8.268E-05 0.000E+00

     total cpu time spent up to now is       15.5 secs

     total energy              =     -24.93064339 Ry
     estimated scf accuracy    <       0.10447887 Ry

     iteration #  2     ecut=    35.00 Ry     beta= 0.70
     Davidson diagonalization with overlap
     ethr =  1.04E-03,  avg # of iterations =  2.0

     negative rho (up, down):  1.075E-04 0.000E+00

     total cpu time spent up to now is       23.8 secs

     total energy              =     -24.94666809 Ry
     estimated scf accuracy    <       0.02740492 Ry

     iteration #  3     ecut=    35.00 Ry     beta= 0.70
     Davidson diagonalization with overlap
     ethr =  2.74E-04,  avg # of iterations =  1.9

     negative rho (up, down):  1.253E-04 0.000E+00

     total cpu time spent up to now is       31.8 secs

     total energy              =     -24.95287395 Ry
     estimated scf accuracy    <       0.00167265 Ry

     iteration #  4     ecut=    35.00 Ry     beta= 0.70
     Davidson diagonalization with overlap
     ethr =  1.67E-05,  avg # of iterations =  5.6

     negative rho (up, down):  1.254E-04 0.000E+00

     total cpu time spent up to now is       42.1 secs

     total energy              =     -24.95312062 Ry
     estimated scf accuracy    <       0.00016821 Ry

     iteration #  5     ecut=    35.00 Ry     beta= 0.70
     Davidson diagonalization with overlap
     ethr =  1.68E-06,  avg # of iterations =  3.8

     negative rho (up, down):  1.276E-04 0.000E+00

     total cpu time spent up to now is       51.1 secs

     total energy              =     -24.95316809 Ry
     estimated scf accuracy    <       0.00000418 Ry

     iteration #  6     ecut=    35.00 Ry     beta= 0.70
     Davidson diagonalization with overlap
     ethr =  4.18E-08,  avg # of iterations =  3.0

     negative rho (up, down):  1.279E-04 0.000E+00

     total cpu time spent up to now is       59.8 secs

     total energy              =     -24.95316895 Ry
     estimated scf accuracy    <       0.00000715 Ry

     iteration #  7     ecut=    35.00 Ry     beta= 0.70
     Davidson diagonalization with overlap
     ethr =  4.18E-08,  avg # of iterations =  1.1

     negative rho (up, down):  1.281E-04 0.000E+00

     total cpu time spent up to now is       67.3 secs

     End of self-consistent calculation

          k = 0.0000 0.0000 0.0000 ( 11013 PWs)   bands (ev):

   -12.4903  -9.1594  -6.2509  -4.4449  -4.4422  -4.4305  -1.3241  -1.3093
    -1.0245

          k =-0.1250 0.0722 0.0000 ( 10947 PWs)   bands (ev):

   -12.3907  -9.2345  -6.2579  -5.5071  -4.5952  -3.3700  -1.3725  -1.0076
    -0.9517

          k =-0.2500 0.1443 0.0000 ( 10944 PWs)   bands (ev):

   -12.1034  -9.5082  -6.3172  -6.2308  -4.8979  -2.9073  -1.1591  -0.6554
    -0.3449

          k =-0.3750 0.2165 0.0000 ( 10874 PWs)   bands (ev):

   -11.6840  -9.9843  -6.6120  -6.3319  -5.1382  -2.9505  -1.0258  -0.4723
     0.2020

          k = 0.5000-0.2887 0.0000 ( 10874 PWs)   bands (ev):

   -11.3950 -10.3153  -6.6816  -6.3687  -5.2258  -2.9951  -1.0292  -0.5085
     0.3765

          k = 0.0000 0.1443 0.0000 ( 10947 PWs)   bands (ev):

   -12.3904  -9.2349  -6.2580  -5.5117  -4.5878  -3.3720  -1.3638  -1.0172
    -0.9513

          k =-0.1250 0.2165 0.0000 ( 10949 PWs)   bands (ev):

   -12.1961  -9.4113  -6.2786  -6.0764  -4.9202  -2.7156  -1.4182  -0.8901
    -0.3672

          k =-0.2500 0.2887 0.0000 ( 10897 PWs)   bands (ev):

   -11.8334  -9.8024  -6.4811  -6.3231  -5.3140  -2.3924  -1.1507  -0.6457
     0.0385

          k = 0.6250-0.2165 0.0000 ( 10898 PWs)   bands (ev):

   -11.4105 -10.2817  -6.6266  -6.3740  -5.5320  -2.4222  -1.0114  -0.4341
     0.0768

          k = 0.5000-0.1443 0.0000 ( 10898 PWs)   bands (ev):

   -11.4113 -10.2804  -6.6264  -6.3735  -5.5334  -2.4214  -1.0120  -0.4320
     0.0740

          k = 0.3750-0.0722 0.0000 ( 10897 PWs)   bands (ev):

   -11.8344  -9.8005  -6.4797  -6.3222  -5.3184  -2.3895  -1.1552  -0.6437
     0.0345

          k = 0.2500 0.0000 0.0000 ( 10949 PWs)   bands (ev):

   -12.1967  -9.4099  -6.2783  -6.0721  -4.9277  -2.7122  -1.4276  -0.8883
    -0.3623

          k = 0.0000 0.2887 0.0000 ( 10946 PWs)   bands (ev):

   -12.1025  -9.5103  -6.3197  -6.2324  -4.8922  -2.9039  -1.1566  -0.6533
    -0.3515

          k =-0.1250 0.3609 0.0000 ( 10897 PWs)   bands (ev):

   -11.8324  -9.8043  -6.4831  -6.3229  -5.3117  -2.3881  -1.1509  -0.6453
     0.0349

          k = 0.7500-0.1443 0.0000 ( 10914 PWs)   bands (ev):

   -11.4241 -10.2501  -6.5308  -6.4022  -5.7986  -1.6397  -1.1312  -0.5095
     0.0937

          k = 0.6250-0.0722 0.0000 ( 10890 PWs)   bands (ev):

   -11.0810 -10.6113  -6.5329  -6.4249  -5.9920  -1.4946  -1.0221  -0.2610
    -0.0795

          k = 0.5000 0.0000 0.0000 ( 10914 PWs)   bands (ev):

   -11.4269 -10.2458  -6.5292  -6.4008  -5.8032  -1.6366  -1.1368  -0.5051
     0.0878

          k = 0.0000 0.4330 0.0000 ( 10874 PWs)   bands (ev):

   -11.6810  -9.9895  -6.6143  -6.3325  -5.1337  -2.9450  -1.0251  -0.4703
     0.1982

          k = 0.8750-0.0722 0.0000 ( 10898 PWs)   bands (ev):

   -11.4063 -10.2877  -6.6282  -6.3745  -5.5285  -2.4175  -1.0107  -0.4311
     0.0734

          k = 0.7500 0.0000 0.0000 ( 10890 PWs)   bands (ev):

   -11.0752 -10.6182  -6.5343  -6.4253  -5.9892  -1.4942  -1.0204  -0.2623
    -0.0764

          k = 0.0000-0.5774 0.0000 ( 10874 PWs)   bands (ev):

   -11.3889 -10.3241  -6.6830  -6.3698  -5.2216  -2.9893  -1.0286  -0.5070
     0.3740

     the Fermi energy is    -4.4236 ev

!    total energy              =     -24.95316997 Ry
     estimated scf accuracy    <       0.00000012 Ry
     smearing contrib. (-TS)   =      -0.00000857 Ry
     internal energy E=F+TS    =     -24.95316140 Ry

     The total energy is F=E-TS. E is the sum of the following terms:
     one-electron contribution =     -96.14331050 Ry
     hartree contribution      =      48.95749728 Ry
     xc contribution           =     -13.01178170 Ry
     ewald contribution        =      35.24471759 Ry
     one-center paw contrib.   =      -0.00028407 Ry

     convergence has been achieved in   7 iterations

     negative rho (up, down):  1.281E-04 0.000E+00

     Forces acting on atoms (cartesian axes, Ry/au):

     atom    1 type  2   force =     0.00000000    0.00002046    0.09725048
     atom    2 type  1   force =     0.00000000   -0.00007227   -0.03291836
     atom    3 type  1   force =     0.00000000    0.00007223    0.03282699
     atom    4 type  2   force =     0.00000000   -0.00002042   -0.09715911

     Total force =     0.145116     Total SCF correction =     0.000161

     BFGS Geometry Optimization

     number of scf cycles    =   1
     number of bfgs steps    =   0

     energy   new            =     -24.9531699681 Ry

     new trust radius        =       0.0972504840 bohr

     The maximum number of steps has been reached.

     End of BFGS Geometry Optimization

ATOMIC_POSITIONS (crystal)
H             0.0000013303        0.0000013303        0.0021286001
Si           -0.0000046982       -0.0000046982        0.0742794891
Si            0.3330046953        0.3330046953        0.1117185110
H             0.3329986726        0.3329986726        0.1838733998



     Writing output data file /home/jesus/Documentos/Nanociencia_DFT/silicano.save/
     NEW-OLD atomic charge density approx. for the potential

     negative rho (up, down):  1.335E-04 0.000E+00

     Writing output data file /home/jesus/Documentos/Nanociencia_DFT/silicano.save/
 
     init_run     :      4.45s CPU      4.82s WALL (       1 calls)
     electrons    :     58.31s CPU     61.60s WALL (       1 calls)
     update_pot   :      1.07s CPU      1.07s WALL (       1 calls)
     forces       :      1.82s CPU      2.04s WALL (       1 calls)

     Called by init_run:
     wfcinit      :      2.50s CPU      2.54s WALL (       1 calls)
     potinit      :      0.58s CPU      0.63s WALL (       1 calls)
     hinit0       :      0.73s CPU      0.77s WALL (       1 calls)

     Called by electrons:
     c_bands      :     41.08s CPU     41.24s WALL (       7 calls)
     sum_band     :     12.00s CPU     13.46s WALL (       7 calls)
     v_of_rho     :      1.99s CPU      2.10s WALL (       9 calls)
     newd         :      4.23s CPU      6.30s WALL (       9 calls)
     PAW_pot      :      0.01s CPU      0.01s WALL (      10 calls)
     mix_rho      :      0.25s CPU      0.25s WALL (       7 calls)

     Called by c_bands:
     init_us_2    :      1.56s CPU      1.57s WALL (     357 calls)
     cegterg      :     35.47s CPU     35.62s WALL (     147 calls)

     Called by *egterg:
     cdiaghg      :      0.09s CPU      0.09s WALL (     564 calls)
     h_psi        :     34.24s CPU     34.41s WALL (     585 calls)
     s_psi        :      1.01s CPU      1.02s WALL (     585 calls)
     g_psi        :      0.09s CPU      0.10s WALL (     417 calls)

     Called by h_psi:
     h_psi:calbec :      1.02s CPU      1.02s WALL (     585 calls)
     vloc_psi     :     32.06s CPU     32.22s WALL (     585 calls)
     add_vuspsi   :      1.00s CPU      1.00s WALL (     585 calls)

     General routines
     calbec       :      1.54s CPU      1.54s WALL (     837 calls)
     fft          :      0.99s CPU      1.01s WALL (     127 calls)
     ffts         :      0.07s CPU      0.06s WALL (      16 calls)
     fftw         :     30.83s CPU     30.96s WALL (    8621 calls)
     interpolate  :      0.16s CPU      0.16s WALL (       9 calls)
     davcio       :      0.00s CPU      0.02s WALL (      21 calls)
 
     Parallel routines
 
     PWSCF        :   1m 7.18s CPU   1m11.49s WALL

 
   This run was terminated on:  17:15:53  31Mar2021            

=------------------------------------------------------------------------------=
   JOB DONE.
=------------------------------------------------------------------------------=
