
     Program PWSCF v.6.6 starts on  1Apr2021 at 23:54:25 

     This program is part of the open-source Quantum ESPRESSO suite
     for quantum simulation of materials; please cite
         "P. Giannozzi et al., J. Phys.:Condens. Matter 21 395502 (2009);
         "P. Giannozzi et al., J. Phys.:Condens. Matter 29 465901 (2017);
          URL http://www.quantum-espresso.org", 
     in publications or presentations arising from this work. More details at
     http://www.quantum-espresso.org/quote

     Parallel version (MPI), running on     1 processors

     MPI processes distributed on     1 nodes
     Fft bands division:     nmany     =       1
     Waiting for input...
     Reading input from standard input
Warning: card &CELL ignored
Warning: card   CELL_DYNAMICS='BFGS', ignored
Warning: card   CELL_DOFREE='ALL', ignored
Warning: card / ignored

     Current dimensions of program PWSCF are:
     Max number of different atomic species (ntypx) = 10
     Max number of k-points (npk) =  40000
     Max angular momentum in pseudopotentials (lmaxx) =  3

     File /home/jesus/Documentos/Nanociencia_DFT/silicano.update deleted, as requested

     File /home/jesus/Documentos/Nanociencia_DFT/silicano.bfgs deleted, as requested

     Subspace diagonalization in iterative solution of the eigenvalue problem:
     a serial algorithm will be used

     Message from routine setup:
     using ibrav=0 with symmetry is DISCOURAGED, use correct ibrav instead
 
     G-vector sticks info
     --------------------
     sticks:   dense  smooth     PW     G-vecs:    dense   smooth      PW
     Sum         769     517    163                91027    49571    8835
 


     bravais-lattice index     =            0
     lattice parameter (alat)  =       7.3586  a.u.
     unit-cell volume          =    1775.0202 (a.u.)^3
     number of atoms/cell      =            4
     number of atomic types    =            2
     number of electrons       =        10.00
     number of Kohn-Sham states=            9
     kinetic-energy cutoff     =      35.0000  Ry
     charge density cutoff     =     210.0000  Ry
     convergence threshold     =      1.0E-06
     mixing beta               =       0.7000
     number of iterations used =            8  plain     mixing
     Exchange-correlation= PBE
                           (   1   4   3   4   0   0   0)
     nstep                     =            1


     celldm(1)=   7.358594  celldm(2)=   0.000000  celldm(3)=   0.000000
     celldm(4)=   0.000000  celldm(5)=   0.000000  celldm(6)=   0.000000

     crystal axes: (cart. coord. in units of alat)
               a(1) = (   0.500000   0.866000   0.000000 )  
               a(2) = (  -0.500000   0.866000   0.000000 )  
               a(3) = (   0.000000   0.000000   5.144000 )  

     reciprocal axes: (cart. coord. in units 2 pi/alat)
               b(1) = (  1.000000  0.577367  0.000000 )  
               b(2) = ( -1.000000  0.577367  0.000000 )  
               b(3) = (  0.000000  0.000000  0.194401 )  


     PseudoPot. # 1 for Si read from file:
     /home/jesus/Nanociencia_DFT/pseudopotenciales/Si.pbe-n-rrkjus_psl.1.0.0.UPF
     MD5 check sum: fa25574f73a70a4139f2adfbefec430c
     Pseudo is Ultrasoft + core correction, Zval =  4.0
     Generated using "atomic" code by A. Dal Corso v.6.3
     Using radial grid of 1141 points,  6 beta functions with: 
                l(1) =   0
                l(2) =   0
                l(3) =   1
                l(4) =   1
                l(5) =   2
                l(6) =   2
     Q(r) pseudized with 0 coefficients 


     PseudoPot. # 2 for H  read from file:
     /home/jesus/Nanociencia_DFT/pseudopotenciales/H.pbe-rrkjus_psl.1.0.0.UPF
     MD5 check sum: 3f4114867bd07edc7f1424d066fc1888
     Pseudo is Ultrasoft, Zval =  1.0
     Generated using "atomic" code by A. Dal Corso v.6.3MaX
     Using radial grid of  929 points,  2 beta functions with: 
                l(1) =   0
                l(2) =   0
     Q(r) pseudized with 0 coefficients 


     atomic species   valence    mass     pseudopotential
        Si             4.00    28.08550     Si( 1.00)
        H              1.00     1.00800     H ( 1.00)

      2 Sym. Ops. (no inversion) found



   Cartesian axes

     site n.     atom                  positions (alat units)
         1           H   tau(   1) = (   0.0000000   0.0000000   0.0000000  )
         2           Si  tau(   2) = (   0.0000000   0.0000000   0.3858000  )
         3           Si  tau(   3) = (   0.0000000   0.5767560   0.5709840  )
         4           H   tau(   4) = (   0.0000000   0.5767560   0.9567840  )

     number of k points=    21  Methfessel-Paxton smearing, width (Ry)=  0.0100
                       cart. coord. in units 2pi/alat
        k(    1) = (   0.0000000   0.0000000   0.0000000), wk =   0.0312500
        k(    2) = (  -0.1250000   0.0721709   0.0000000), wk =   0.1250000
        k(    3) = (  -0.2500000   0.1443418   0.0000000), wk =   0.1250000
        k(    4) = (  -0.3750000   0.2165127   0.0000000), wk =   0.1250000
        k(    5) = (   0.5000000  -0.2886836   0.0000000), wk =   0.0625000
        k(    6) = (   0.0000000   0.1443418   0.0000000), wk =   0.0625000
        k(    7) = (  -0.1250000   0.2165127   0.0000000), wk =   0.1250000
        k(    8) = (  -0.2500000   0.2886836   0.0000000), wk =   0.1250000
        k(    9) = (   0.6250000  -0.2165127   0.0000000), wk =   0.1250000
        k(   10) = (   0.5000000  -0.1443418   0.0000000), wk =   0.1250000
        k(   11) = (   0.3750000  -0.0721709   0.0000000), wk =   0.1250000
        k(   12) = (   0.2500000   0.0000000   0.0000000), wk =   0.0625000
        k(   13) = (   0.0000000   0.2886836   0.0000000), wk =   0.0625000
        k(   14) = (  -0.1250000   0.3608545   0.0000000), wk =   0.1250000
        k(   15) = (   0.7500000  -0.1443418   0.0000000), wk =   0.1250000
        k(   16) = (   0.6250000  -0.0721709   0.0000000), wk =   0.1250000
        k(   17) = (   0.5000000   0.0000000   0.0000000), wk =   0.0625000
        k(   18) = (   0.0000000   0.4330254   0.0000000), wk =   0.0625000
        k(   19) = (   0.8750000  -0.0721709   0.0000000), wk =   0.1250000
        k(   20) = (   0.7500000   0.0000000   0.0000000), wk =   0.0625000
        k(   21) = (   0.0000000  -0.5773672   0.0000000), wk =   0.0312500

     Dense  grid:    91027 G-vectors     FFT dimensions: (  36,  36, 180)

     Smooth grid:    49571 G-vectors     FFT dimensions: (  27,  27, 144)

     Estimated max dynamical RAM per process >     345.80 MB

     Initial potential from superposition of free atoms

     starting charge    9.99886, renormalised to   10.00000

     negative rho (up, down):  1.002E-04 0.000E+00
     Starting wfcs are   10 randomized atomic wfcs

     total cpu time spent up to now is        2.9 secs

     Self-consistent Calculation

     iteration #  1     ecut=    35.00 Ry     beta= 0.70
     Davidson diagonalization with overlap
     ethr =  1.00E-02,  avg # of iterations =  3.4

     negative rho (up, down):  8.121E-05 0.000E+00

     total cpu time spent up to now is        6.7 secs

     total energy              =     -25.15083347 Ry
     estimated scf accuracy    <       0.16462523 Ry

     iteration #  2     ecut=    35.00 Ry     beta= 0.70
     Davidson diagonalization with overlap
     ethr =  1.65E-03,  avg # of iterations =  1.4

     negative rho (up, down):  9.632E-05 0.000E+00

     total cpu time spent up to now is        9.6 secs

     total energy              =     -25.16063803 Ry
     estimated scf accuracy    <       0.00466277 Ry

     iteration #  3     ecut=    35.00 Ry     beta= 0.70
     Davidson diagonalization with overlap
     c_bands:  1 eigenvalues not converged
     ethr =  4.66E-05,  avg # of iterations =  9.1

     negative rho (up, down):  9.834E-05 0.000E+00

     total cpu time spent up to now is       14.3 secs

     total energy              =     -25.16142136 Ry
     estimated scf accuracy    <       0.00026506 Ry

     iteration #  4     ecut=    35.00 Ry     beta= 0.70
     Davidson diagonalization with overlap
     ethr =  2.65E-06,  avg # of iterations =  5.1

     negative rho (up, down):  1.016E-04 0.000E+00

     total cpu time spent up to now is       18.1 secs

     total energy              =     -25.16146555 Ry
     estimated scf accuracy    <       0.00002491 Ry

     iteration #  5     ecut=    35.00 Ry     beta= 0.70
     Davidson diagonalization with overlap
     ethr =  2.49E-07,  avg # of iterations =  1.7

     negative rho (up, down):  1.016E-04 0.000E+00

     total cpu time spent up to now is       21.1 secs

     total energy              =     -25.16146847 Ry
     estimated scf accuracy    <       0.00000528 Ry

     iteration #  6     ecut=    35.00 Ry     beta= 0.70
     Davidson diagonalization with overlap
     ethr =  5.28E-08,  avg # of iterations =  1.1

     negative rho (up, down):  1.018E-04 0.000E+00

     total cpu time spent up to now is       23.9 secs

     End of self-consistent calculation

          k = 0.0000 0.0000 0.0000 (  6113 PWs)   bands (ev):

   -13.6898  -9.1409  -5.8821  -3.4013  -3.3859  -1.0733   0.5209   0.5376
     0.7779

          k =-0.1250 0.0722 0.0000 (  6170 PWs)   bands (ev):

   -13.5204  -9.1018  -5.8817  -4.5422  -3.7040  -0.4786   0.5724   1.0752
     1.1362

          k =-0.2500 0.1443 0.0000 (  6194 PWs)   bands (ev):

   -13.0259  -9.1197  -6.1415  -5.8429  -4.2506  -0.8237   1.0980   1.3696
     2.1553

          k =-0.3750 0.2165 0.0000 (  6224 PWs)   bands (ev):

   -12.2752  -9.6201  -6.8694  -5.9966  -4.6590  -1.1332   0.6394   1.3334
     2.9915

          k = 0.5000-0.2887 0.0000 (  6214 PWs)   bands (ev):

   -11.7030 -10.2152  -6.9479  -6.0976  -4.8042  -1.2066   0.2828   1.3160
     3.0081

          k = 0.0000 0.1443 0.0000 (  6170 PWs)   bands (ev):

   -13.5203  -9.1019  -5.8820  -4.5501  -3.6947  -0.4757   0.5763   1.0756
     1.1260

          k =-0.1250 0.2165 0.0000 (  6167 PWs)   bands (ev):

   -13.1874  -9.0850  -5.9073  -5.6071  -4.3597   0.1765   0.4276   1.2733
     1.6360

          k =-0.2500 0.2887 0.0000 (  6214 PWs)   bands (ev):

   -12.5537  -9.3357  -6.5576  -5.9964  -5.0531  -0.0682   1.1061   1.2761
     2.0376

          k = 0.6250-0.2165 0.0000 (  6229 PWs)   bands (ev):

   -11.7709 -10.0533  -6.8606  -6.1076  -5.4089  -0.1588   0.5128   1.3299
     2.2555

          k = 0.5000-0.1443 0.0000 (  6229 PWs)   bands (ev):

   -11.7719 -10.0516  -6.8609  -6.1062  -5.4109  -0.1577   0.5119   1.3300
     2.2550

          k = 0.3750-0.0722 0.0000 (  6214 PWs)   bands (ev):

   -12.5546  -9.3338  -6.5557  -5.9944  -5.0588  -0.0666   1.1080   1.2737
     2.0355

          k = 0.2500 0.0000 0.0000 (  6167 PWs)   bands (ev):

   -13.1879  -9.0842  -5.9066  -5.5995  -4.3698   0.1814   0.4183   1.2757
     1.6353

          k = 0.0000 0.2887 0.0000 (  6194 PWs)   bands (ev):

   -13.0251  -9.1211  -6.1465  -5.8440  -4.2438  -0.8173   1.0979   1.3685
     2.3762

          k =-0.1250 0.3609 0.0000 (  6214 PWs)   bands (ev):

   -12.5528  -9.3375  -6.5600  -5.9962  -5.0503  -0.0620   1.1066   1.2745
     2.0361

          k = 0.7500-0.1443 0.0000 (  6233 PWs)   bands (ev):

   -11.8288  -9.8940  -6.5795  -6.3681  -5.8466   0.7475   1.0333   1.8006
     2.1542

          k = 0.6250-0.0722 0.0000 (  6213 PWs)   bands (ev):

   -11.1993 -10.4820  -6.7037  -6.2693  -6.2220   0.6104   1.3799   1.4506
     2.0338

          k = 0.5000 0.0000 0.0000 (  6233 PWs)   bands (ev):

   -11.8317  -9.8888  -6.5779  -6.3676  -5.8513   0.7488   1.0329   1.7972
     2.1460

          k = 0.0000 0.4330 0.0000 (  6224 PWs)   bands (ev):

   -12.2723  -9.6257  -6.8708  -5.9985  -4.6534  -1.1270   0.6405   1.3312
     2.9908

          k = 0.8750-0.0722 0.0000 (  6229 PWs)   bands (ev):

   -11.7664 -10.0606  -6.8607  -6.1092  -5.4047  -0.1525   0.5142   1.3270
     2.2559

          k = 0.7500 0.0000 0.0000 (  6213 PWs)   bands (ev):

   -11.1923 -10.4909  -6.7041  -6.2653  -6.2240   0.6112   1.3785   1.4514
     2.0391

          k = 0.0000-0.5774 0.0000 (  6214 PWs)   bands (ev):

   -11.6957 -10.2263  -6.9469  -6.1007  -4.7990  -1.2006   0.2848   1.3125
     3.0084

     the Fermi energy is    -3.2783 ev

!    total energy              =     -25.16146923 Ry
     estimated scf accuracy    <       0.00000043 Ry
     smearing contrib. (-TS)   =       0.00001857 Ry
     internal energy E=F+TS    =     -25.16148780 Ry

     The total energy is F=E-TS. E is the sum of the following terms:
     one-electron contribution =    -110.74669512 Ry
     hartree contribution      =      56.68595466 Ry
     xc contribution           =     -13.64059651 Ry
     ewald contribution        =      42.53984918 Ry

     convergence has been achieved in   6 iterations

     negative rho (up, down):  1.018E-04 0.000E+00

     Forces acting on atoms (cartesian axes, Ry/au):

     atom    1 type  2   force =     0.00000000   -0.00000974   -0.00006818
     atom    2 type  1   force =     0.00000000   -0.00101719    0.00141938
     atom    3 type  1   force =     0.00000000    0.00101714   -0.00114145
     atom    4 type  2   force =     0.00000000    0.00000979   -0.00020975

     Total force =     0.002331     Total SCF correction =     0.000407
     SCF correction compared to forces is large: reduce conv_thr to get better values

     BFGS Geometry Optimization

     number of scf cycles    =   1
     number of bfgs steps    =   0

     energy   new            =     -25.1614692285 Ry

     new trust radius        =       0.0017462267 bohr

     The maximum number of steps has been reached.

     End of BFGS Geometry Optimization

ATOMIC_POSITIONS (crystal)
H            -0.0000007642       -0.0000007642       -0.0000018011
Si           -0.0000798103       -0.0000798103        0.0750374975
Si            0.3330798065        0.3330798065        0.1109698448
H             0.3330007680        0.3330007680        0.1859944588



     Writing output data file /home/jesus/Documentos/Nanociencia_DFT/silicano.save/
     NEW-OLD atomic charge density approx. for the potential

     negative rho (up, down):  1.019E-04 0.000E+00

     Writing output data file /home/jesus/Documentos/Nanociencia_DFT/silicano.save/
 
     init_run     :      1.88s CPU      2.10s WALL (       1 calls)
     electrons    :     19.61s CPU     21.06s WALL (       1 calls)
     update_pot   :      0.58s CPU      0.59s WALL (       1 calls)
     forces       :      0.96s CPU      1.07s WALL (       1 calls)

     Called by init_run:
     wfcinit      :      0.79s CPU      0.79s WALL (       1 calls)
     potinit      :      0.28s CPU      0.31s WALL (       1 calls)
     hinit0       :      0.56s CPU      0.58s WALL (       1 calls)

     Called by electrons:
     c_bands      :     13.81s CPU     13.86s WALL (       6 calls)
     sum_band     :      3.69s CPU      4.38s WALL (       6 calls)
     v_of_rho     :      0.81s CPU      0.86s WALL (       8 calls)
     newd         :      1.77s CPU      2.70s WALL (       8 calls)
     mix_rho      :      0.08s CPU      0.08s WALL (       6 calls)

     Called by c_bands:
     init_us_2    :      0.62s CPU      0.62s WALL (     294 calls)
     cegterg      :     11.37s CPU     11.41s WALL (     126 calls)

     Called by *egterg:
     cdiaghg      :      0.08s CPU      0.08s WALL (     584 calls)
     h_psi        :     10.44s CPU     10.48s WALL (     605 calls)
     s_psi        :      0.44s CPU      0.44s WALL (     605 calls)
     g_psi        :      0.05s CPU      0.05s WALL (     458 calls)

     Called by h_psi:
     h_psi:calbec :      0.48s CPU      0.48s WALL (     605 calls)
     vloc_psi     :      9.46s CPU      9.49s WALL (     605 calls)
     add_vuspsi   :      0.44s CPU      0.45s WALL (     605 calls)

     General routines
     calbec       :      0.69s CPU      0.69s WALL (     815 calls)
     fft          :      0.34s CPU      0.36s WALL (     114 calls)
     ffts         :      0.02s CPU      0.02s WALL (      14 calls)
     fftw         :      9.72s CPU      9.75s WALL (    8136 calls)
     interpolate  :      0.05s CPU      0.05s WALL (       8 calls)
     davcio       :      0.00s CPU      0.00s WALL (      21 calls)
 
     Parallel routines
 
     PWSCF        :     24.07s CPU     25.98s WALL

 
   This run was terminated on:  23:54:51   1Apr2021            

=------------------------------------------------------------------------------=
   JOB DONE.
=------------------------------------------------------------------------------=
