
     Program PWSCF v.6.6 starts on  1Apr2021 at 23:51:22 

     This program is part of the open-source Quantum ESPRESSO suite
     for quantum simulation of materials; please cite
         "P. Giannozzi et al., J. Phys.:Condens. Matter 21 395502 (2009);
         "P. Giannozzi et al., J. Phys.:Condens. Matter 29 465901 (2017);
          URL http://www.quantum-espresso.org", 
     in publications or presentations arising from this work. More details at
     http://www.quantum-espresso.org/quote

     Parallel version (MPI), running on     1 processors

     MPI processes distributed on     1 nodes
     Fft bands division:     nmany     =       1
     Waiting for input...
     Reading input from standard input
Warning: card &CELL ignored
Warning: card   CELL_DYNAMICS='BFGS', ignored
Warning: card   CELL_DOFREE='ALL', ignored
Warning: card / ignored

     Current dimensions of program PWSCF are:
     Max number of different atomic species (ntypx) = 10
     Max number of k-points (npk) =  40000
     Max angular momentum in pseudopotentials (lmaxx) =  3

     File /home/jesus/Documentos/Nanociencia_DFT/silicano.update deleted, as requested

     File /home/jesus/Documentos/Nanociencia_DFT/silicano.bfgs deleted, as requested

     Subspace diagonalization in iterative solution of the eigenvalue problem:
     a serial algorithm will be used

     Message from routine setup:
     using ibrav=0 with symmetry is DISCOURAGED, use correct ibrav instead
 
     G-vector sticks info
     --------------------
     sticks:   dense  smooth     PW     G-vecs:    dense   smooth      PW
     Sum         769     511    163                90511    49301    8823
 


     bravais-lattice index     =            0
     lattice parameter (alat)  =       7.3454  a.u.
     unit-cell volume          =    1765.4648 (a.u.)^3
     number of atoms/cell      =            4
     number of atomic types    =            2
     number of electrons       =        10.00
     number of Kohn-Sham states=            9
     kinetic-energy cutoff     =      35.0000  Ry
     charge density cutoff     =     210.0000  Ry
     convergence threshold     =      1.0E-06
     mixing beta               =       0.7000
     number of iterations used =            8  plain     mixing
     Exchange-correlation= PBE
                           (   1   4   3   4   0   0   0)
     nstep                     =            1


     celldm(1)=   7.345365  celldm(2)=   0.000000  celldm(3)=   0.000000
     celldm(4)=   0.000000  celldm(5)=   0.000000  celldm(6)=   0.000000

     crystal axes: (cart. coord. in units of alat)
               a(1) = (   0.500000   0.866000   0.000000 )  
               a(2) = (  -0.500000   0.866000   0.000000 )  
               a(3) = (   0.000000   0.000000   5.144000 )  

     reciprocal axes: (cart. coord. in units 2 pi/alat)
               b(1) = (  1.000000  0.577367  0.000000 )  
               b(2) = ( -1.000000  0.577367  0.000000 )  
               b(3) = (  0.000000  0.000000  0.194401 )  


     PseudoPot. # 1 for Si read from file:
     /home/jesus/Nanociencia_DFT/pseudopotenciales/Si.pbe-n-rrkjus_psl.1.0.0.UPF
     MD5 check sum: fa25574f73a70a4139f2adfbefec430c
     Pseudo is Ultrasoft + core correction, Zval =  4.0
     Generated using "atomic" code by A. Dal Corso v.6.3
     Using radial grid of 1141 points,  6 beta functions with: 
                l(1) =   0
                l(2) =   0
                l(3) =   1
                l(4) =   1
                l(5) =   2
                l(6) =   2
     Q(r) pseudized with 0 coefficients 


     PseudoPot. # 2 for H  read from file:
     /home/jesus/Nanociencia_DFT/pseudopotenciales/H.pbe-rrkjus_psl.1.0.0.UPF
     MD5 check sum: 3f4114867bd07edc7f1424d066fc1888
     Pseudo is Ultrasoft, Zval =  1.0
     Generated using "atomic" code by A. Dal Corso v.6.3MaX
     Using radial grid of  929 points,  2 beta functions with: 
                l(1) =   0
                l(2) =   0
     Q(r) pseudized with 0 coefficients 


     atomic species   valence    mass     pseudopotential
        Si             4.00    28.08550     Si( 1.00)
        H              1.00     1.00800     H ( 1.00)

      2 Sym. Ops. (no inversion) found



   Cartesian axes

     site n.     atom                  positions (alat units)
         1           H   tau(   1) = (   0.0000000   0.0000000   0.0000000  )
         2           Si  tau(   2) = (   0.0000000   0.0000000   0.3858000  )
         3           Si  tau(   3) = (   0.0000000   0.5767560   0.5709840  )
         4           H   tau(   4) = (   0.0000000   0.5767560   0.9567840  )

     number of k points=    21  Methfessel-Paxton smearing, width (Ry)=  0.0100
                       cart. coord. in units 2pi/alat
        k(    1) = (   0.0000000   0.0000000   0.0000000), wk =   0.0312500
        k(    2) = (  -0.1250000   0.0721709   0.0000000), wk =   0.1250000
        k(    3) = (  -0.2500000   0.1443418   0.0000000), wk =   0.1250000
        k(    4) = (  -0.3750000   0.2165127   0.0000000), wk =   0.1250000
        k(    5) = (   0.5000000  -0.2886836   0.0000000), wk =   0.0625000
        k(    6) = (   0.0000000   0.1443418   0.0000000), wk =   0.0625000
        k(    7) = (  -0.1250000   0.2165127   0.0000000), wk =   0.1250000
        k(    8) = (  -0.2500000   0.2886836   0.0000000), wk =   0.1250000
        k(    9) = (   0.6250000  -0.2165127   0.0000000), wk =   0.1250000
        k(   10) = (   0.5000000  -0.1443418   0.0000000), wk =   0.1250000
        k(   11) = (   0.3750000  -0.0721709   0.0000000), wk =   0.1250000
        k(   12) = (   0.2500000   0.0000000   0.0000000), wk =   0.0625000
        k(   13) = (   0.0000000   0.2886836   0.0000000), wk =   0.0625000
        k(   14) = (  -0.1250000   0.3608545   0.0000000), wk =   0.1250000
        k(   15) = (   0.7500000  -0.1443418   0.0000000), wk =   0.1250000
        k(   16) = (   0.6250000  -0.0721709   0.0000000), wk =   0.1250000
        k(   17) = (   0.5000000   0.0000000   0.0000000), wk =   0.0625000
        k(   18) = (   0.0000000   0.4330254   0.0000000), wk =   0.0625000
        k(   19) = (   0.8750000  -0.0721709   0.0000000), wk =   0.1250000
        k(   20) = (   0.7500000   0.0000000   0.0000000), wk =   0.0625000
        k(   21) = (   0.0000000  -0.5773672   0.0000000), wk =   0.0312500

     Dense  grid:    90511 G-vectors     FFT dimensions: (  36,  36, 180)

     Smooth grid:    49301 G-vectors     FFT dimensions: (  27,  27, 144)

     Estimated max dynamical RAM per process >     343.95 MB

     Initial potential from superposition of free atoms

     starting charge    9.99886, renormalised to   10.00000

     negative rho (up, down):  1.006E-04 0.000E+00
     Starting wfcs are   10 randomized atomic wfcs

     total cpu time spent up to now is        2.9 secs

     Self-consistent Calculation

     iteration #  1     ecut=    35.00 Ry     beta= 0.70
     Davidson diagonalization with overlap
     ethr =  1.00E-02,  avg # of iterations =  3.4

     negative rho (up, down):  8.174E-05 0.000E+00

     total cpu time spent up to now is        6.7 secs

     total energy              =     -25.15080302 Ry
     estimated scf accuracy    <       0.16564958 Ry

     iteration #  2     ecut=    35.00 Ry     beta= 0.70
     Davidson diagonalization with overlap
     ethr =  1.66E-03,  avg # of iterations =  1.5

     negative rho (up, down):  9.788E-05 0.000E+00

     total cpu time spent up to now is        9.7 secs

     total energy              =     -25.16063149 Ry
     estimated scf accuracy    <       0.00465131 Ry

     iteration #  3     ecut=    35.00 Ry     beta= 0.70
     Davidson diagonalization with overlap
     c_bands:  1 eigenvalues not converged
     ethr =  4.65E-05,  avg # of iterations =  8.7

     negative rho (up, down):  9.969E-05 0.000E+00

     total cpu time spent up to now is       14.4 secs

     total energy              =     -25.16141713 Ry
     estimated scf accuracy    <       0.00025831 Ry

     iteration #  4     ecut=    35.00 Ry     beta= 0.70
     Davidson diagonalization with overlap
     ethr =  2.58E-06,  avg # of iterations =  5.5

     negative rho (up, down):  1.029E-04 0.000E+00

     total cpu time spent up to now is       18.2 secs

     total energy              =     -25.16146058 Ry
     estimated scf accuracy    <       0.00002308 Ry

     iteration #  5     ecut=    35.00 Ry     beta= 0.70
     Davidson diagonalization with overlap
     ethr =  2.31E-07,  avg # of iterations =  1.6

     negative rho (up, down):  1.029E-04 0.000E+00

     total cpu time spent up to now is       21.2 secs

     total energy              =     -25.16146330 Ry
     estimated scf accuracy    <       0.00000121 Ry

     iteration #  6     ecut=    35.00 Ry     beta= 0.70
     Davidson diagonalization with overlap
     ethr =  1.21E-08,  avg # of iterations =  2.0

     negative rho (up, down):  1.031E-04 0.000E+00

     total cpu time spent up to now is       24.3 secs

     End of self-consistent calculation

          k = 0.0000 0.0000 0.0000 (  6083 PWs)   bands (ev):

   -13.7023  -9.1420  -5.8751  -3.3855  -3.3700  -1.0423   0.5418   0.5585
     0.7955

          k =-0.1250 0.0722 0.0000 (  6130 PWs)   bands (ev):

   -13.5321  -9.1015  -5.8745  -4.5293  -3.6901  -0.4544   0.5921   1.0972
     1.1608

          k =-0.2500 0.1443 0.0000 (  6174 PWs)   bands (ev):

   -13.0352  -9.1158  -6.1372  -5.8352  -4.2397  -0.8055   1.1169   1.3868
     2.1692

          k =-0.3750 0.2165 0.0000 (  6186 PWs)   bands (ev):

   -12.2805  -9.6151  -6.8703  -5.9893  -4.6500  -1.1167   0.6519   1.3559
     3.0208

          k = 0.5000-0.2887 0.0000 (  6174 PWs)   bands (ev):

   -11.7046 -10.2138  -6.9481  -6.0913  -4.7958  -1.1905   0.2943   1.3373
     3.0349

          k = 0.0000 0.1443 0.0000 (  6130 PWs)   bands (ev):

   -13.5319  -9.1016  -5.8747  -4.5373  -3.6808  -0.4515   0.5958   1.0973
     1.1506

          k =-0.1250 0.2165 0.0000 (  6149 PWs)   bands (ev):

   -13.1975  -9.0821  -5.9000  -5.5990  -4.3502   0.1989   0.4483   1.2960
     1.6483

          k =-0.2500 0.2887 0.0000 (  6184 PWs)   bands (ev):

   -12.5606  -9.3296  -6.5563  -5.9894  -5.0470  -0.0482   1.1235   1.2964
     2.0589

          k = 0.6250-0.2165 0.0000 (  6197 PWs)   bands (ev):

   -11.7734 -10.0498  -6.8610  -6.1013  -5.4044  -0.1389   0.5255   1.3515
     2.2780

          k = 0.5000-0.1443 0.0000 (  6195 PWs)   bands (ev):

   -11.7743 -10.0481  -6.8613  -6.0999  -5.4064  -0.1377   0.5246   1.3516
     2.2775

          k = 0.3750-0.0722 0.0000 (  6184 PWs)   bands (ev):

   -12.5615  -9.3277  -6.5544  -5.9875  -5.0527  -0.0466   1.1255   1.2937
     2.0572

          k = 0.2500 0.0000 0.0000 (  6149 PWs)   bands (ev):

   -13.1980  -9.0814  -5.8993  -5.5914  -4.3603   0.2037   0.4391   1.2983
     1.6475

          k = 0.0000 0.2887 0.0000 (  6174 PWs)   bands (ev):

   -13.0344  -9.1171  -6.1422  -5.8362  -4.2329  -0.7991   1.1168   1.3858
     2.4079

          k =-0.1250 0.3609 0.0000 (  6184 PWs)   bands (ev):

   -12.5597  -9.3314  -6.5588  -5.9892  -5.0441  -0.0421   1.1239   1.2944
     2.0582

          k = 0.7500-0.1443 0.0000 (  6185 PWs)   bands (ev):

   -11.8319  -9.8883  -6.5776  -6.3673  -5.8419   0.7600   1.0527   1.8205
     2.1745

          k = 0.6250-0.0722 0.0000 (  6185 PWs)   bands (ev):

   -11.1988 -10.4790  -6.7055  -6.2680  -6.2164   0.6211   1.3993   1.4696
     2.0645

          k = 0.5000 0.0000 0.0000 (  6185 PWs)   bands (ev):

   -11.8348  -9.8831  -6.5760  -6.3669  -5.8465   0.7613   1.0523   1.8171
     2.1662

          k = 0.0000 0.4330 0.0000 (  6186 PWs)   bands (ev):

   -12.2776  -9.6207  -6.8716  -5.9912  -4.6445  -1.1106   0.6532   1.3535
     3.0203

          k = 0.8750-0.0722 0.0000 (  6195 PWs)   bands (ev):

   -11.7689 -10.0571  -6.8610  -6.1030  -5.4002  -0.1326   0.5270   1.3485
     2.2783

          k = 0.7500 0.0000 0.0000 (  6185 PWs)   bands (ev):

   -11.1917 -10.4879  -6.7058  -6.2640  -6.2184   0.6219   1.3980   1.4705
     2.0698

          k = 0.0000-0.5774 0.0000 (  6174 PWs)   bands (ev):

   -11.6973 -10.2249  -6.9471  -6.0944  -4.7906  -1.1846   0.2963   1.3338
     3.0353

     the Fermi energy is    -3.2625 ev

!    total energy              =     -25.16146339 Ry
     estimated scf accuracy    <       0.00000036 Ry
     smearing contrib. (-TS)   =       0.00001855 Ry
     internal energy E=F+TS    =     -25.16148194 Ry

     The total energy is F=E-TS. E is the sum of the following terms:
     one-electron contribution =    -110.89446756 Ry
     hartree contribution      =      56.76418133 Ry
     xc contribution           =     -13.64765383 Ry
     ewald contribution        =      42.61645812 Ry

     convergence has been achieved in   6 iterations

     negative rho (up, down):  1.031E-04 0.000E+00

     Forces acting on atoms (cartesian axes, Ry/au):

     atom    1 type  2   force =     0.00000000   -0.00001028   -0.00179114
     atom    2 type  1   force =     0.00000000   -0.00103367    0.00170383
     atom    3 type  1   force =     0.00000000    0.00103461   -0.00155341
     atom    4 type  2   force =     0.00000000    0.00000933    0.00164072

     Total force =     0.003655     Total SCF correction =     0.001123
     SCF correction compared to forces is large: reduce conv_thr to get better values

     BFGS Geometry Optimization

     number of scf cycles    =   1
     number of bfgs steps    =   0

     energy   new            =     -25.1614633890 Ry

     new trust radius        =       0.0019928632 bohr

     The maximum number of steps has been reached.

     End of BFGS Geometry Optimization

ATOMIC_POSITIONS (crystal)
H            -0.0000008077       -0.0000008077       -0.0000474040
Si           -0.0000812495       -0.0000812495        0.0750450932
Si            0.3330813237        0.3330813237        0.1109588876
H             0.3330007336        0.3330007336        0.1860434232



     Writing output data file /home/jesus/Documentos/Nanociencia_DFT/silicano.save/
     NEW-OLD atomic charge density approx. for the potential

     negative rho (up, down):  1.031E-04 0.000E+00

     Writing output data file /home/jesus/Documentos/Nanociencia_DFT/silicano.save/
 
     init_run     :      1.85s CPU      2.11s WALL (       1 calls)
     electrons    :     19.96s CPU     21.44s WALL (       1 calls)
     update_pot   :      0.55s CPU      0.55s WALL (       1 calls)
     forces       :      0.92s CPU      1.04s WALL (       1 calls)

     Called by init_run:
     wfcinit      :      0.78s CPU      0.79s WALL (       1 calls)
     potinit      :      0.29s CPU      0.33s WALL (       1 calls)
     hinit0       :      0.55s CPU      0.59s WALL (       1 calls)

     Called by electrons:
     c_bands      :     14.07s CPU     14.13s WALL (       6 calls)
     sum_band     :      3.73s CPU      4.41s WALL (       6 calls)
     v_of_rho     :      0.84s CPU      0.90s WALL (       8 calls)
     newd         :      1.74s CPU      2.72s WALL (       8 calls)
     mix_rho      :      0.08s CPU      0.08s WALL (       6 calls)

     Called by c_bands:
     init_us_2    :      0.62s CPU      0.63s WALL (     294 calls)
     cegterg      :     11.63s CPU     11.68s WALL (     126 calls)

     Called by *egterg:
     cdiaghg      :      0.09s CPU      0.09s WALL (     602 calls)
     h_psi        :     10.66s CPU     10.72s WALL (     623 calls)
     s_psi        :      0.44s CPU      0.44s WALL (     623 calls)
     g_psi        :      0.05s CPU      0.05s WALL (     476 calls)

     Called by h_psi:
     h_psi:calbec :      0.49s CPU      0.49s WALL (     623 calls)
     vloc_psi     :      9.65s CPU      9.71s WALL (     623 calls)
     add_vuspsi   :      0.45s CPU      0.46s WALL (     623 calls)

     General routines
     calbec       :      0.72s CPU      0.72s WALL (     833 calls)
     fft          :      0.37s CPU      0.39s WALL (     114 calls)
     ffts         :      0.02s CPU      0.02s WALL (      14 calls)
     fftw         :      9.89s CPU      9.93s WALL (    8228 calls)
     interpolate  :      0.05s CPU      0.05s WALL (       8 calls)
     davcio       :      0.00s CPU      0.01s WALL (      21 calls)
 
     Parallel routines
 
     PWSCF        :     24.27s CPU     26.30s WALL

 
   This run was terminated on:  23:51:49   1Apr2021            

=------------------------------------------------------------------------------=
   JOB DONE.
=------------------------------------------------------------------------------=
