
     Program PWSCF v.6.6 starts on  1Apr2021 at 23:52:16 

     This program is part of the open-source Quantum ESPRESSO suite
     for quantum simulation of materials; please cite
         "P. Giannozzi et al., J. Phys.:Condens. Matter 21 395502 (2009);
         "P. Giannozzi et al., J. Phys.:Condens. Matter 29 465901 (2017);
          URL http://www.quantum-espresso.org", 
     in publications or presentations arising from this work. More details at
     http://www.quantum-espresso.org/quote

     Parallel version (MPI), running on     1 processors

     MPI processes distributed on     1 nodes
     Fft bands division:     nmany     =       1
     Waiting for input...
     Reading input from standard input
Warning: card &CELL ignored
Warning: card   CELL_DYNAMICS='BFGS', ignored
Warning: card   CELL_DOFREE='ALL', ignored
Warning: card / ignored

     Current dimensions of program PWSCF are:
     Max number of different atomic species (ntypx) = 10
     Max number of k-points (npk) =  40000
     Max angular momentum in pseudopotentials (lmaxx) =  3

     File /home/jesus/Documentos/Nanociencia_DFT/silicano.update deleted, as requested

     File /home/jesus/Documentos/Nanociencia_DFT/silicano.bfgs deleted, as requested

     Subspace diagonalization in iterative solution of the eigenvalue problem:
     a serial algorithm will be used

     Message from routine setup:
     using ibrav=0 with symmetry is DISCOURAGED, use correct ibrav instead
 
     G-vector sticks info
     --------------------
     sticks:   dense  smooth     PW     G-vecs:    dense   smooth      PW
     Sum         769     511    163                90607    49349    8823
 


     bravais-lattice index     =            0
     lattice parameter (alat)  =       7.3491  a.u.
     unit-cell volume          =    1768.1914 (a.u.)^3
     number of atoms/cell      =            4
     number of atomic types    =            2
     number of electrons       =        10.00
     number of Kohn-Sham states=            9
     kinetic-energy cutoff     =      35.0000  Ry
     charge density cutoff     =     210.0000  Ry
     convergence threshold     =      1.0E-06
     mixing beta               =       0.7000
     number of iterations used =            8  plain     mixing
     Exchange-correlation= PBE
                           (   1   4   3   4   0   0   0)
     nstep                     =            1


     celldm(1)=   7.349145  celldm(2)=   0.000000  celldm(3)=   0.000000
     celldm(4)=   0.000000  celldm(5)=   0.000000  celldm(6)=   0.000000

     crystal axes: (cart. coord. in units of alat)
               a(1) = (   0.500000   0.866000   0.000000 )  
               a(2) = (  -0.500000   0.866000   0.000000 )  
               a(3) = (   0.000000   0.000000   5.144000 )  

     reciprocal axes: (cart. coord. in units 2 pi/alat)
               b(1) = (  1.000000  0.577367  0.000000 )  
               b(2) = ( -1.000000  0.577367  0.000000 )  
               b(3) = (  0.000000  0.000000  0.194401 )  


     PseudoPot. # 1 for Si read from file:
     /home/jesus/Nanociencia_DFT/pseudopotenciales/Si.pbe-n-rrkjus_psl.1.0.0.UPF
     MD5 check sum: fa25574f73a70a4139f2adfbefec430c
     Pseudo is Ultrasoft + core correction, Zval =  4.0
     Generated using "atomic" code by A. Dal Corso v.6.3
     Using radial grid of 1141 points,  6 beta functions with: 
                l(1) =   0
                l(2) =   0
                l(3) =   1
                l(4) =   1
                l(5) =   2
                l(6) =   2
     Q(r) pseudized with 0 coefficients 


     PseudoPot. # 2 for H  read from file:
     /home/jesus/Nanociencia_DFT/pseudopotenciales/H.pbe-rrkjus_psl.1.0.0.UPF
     MD5 check sum: 3f4114867bd07edc7f1424d066fc1888
     Pseudo is Ultrasoft, Zval =  1.0
     Generated using "atomic" code by A. Dal Corso v.6.3MaX
     Using radial grid of  929 points,  2 beta functions with: 
                l(1) =   0
                l(2) =   0
     Q(r) pseudized with 0 coefficients 


     atomic species   valence    mass     pseudopotential
        Si             4.00    28.08550     Si( 1.00)
        H              1.00     1.00800     H ( 1.00)

      2 Sym. Ops. (no inversion) found



   Cartesian axes

     site n.     atom                  positions (alat units)
         1           H   tau(   1) = (   0.0000000   0.0000000   0.0000000  )
         2           Si  tau(   2) = (   0.0000000   0.0000000   0.3858000  )
         3           Si  tau(   3) = (   0.0000000   0.5767560   0.5709840  )
         4           H   tau(   4) = (   0.0000000   0.5767560   0.9567840  )

     number of k points=    21  Methfessel-Paxton smearing, width (Ry)=  0.0100
                       cart. coord. in units 2pi/alat
        k(    1) = (   0.0000000   0.0000000   0.0000000), wk =   0.0312500
        k(    2) = (  -0.1250000   0.0721709   0.0000000), wk =   0.1250000
        k(    3) = (  -0.2500000   0.1443418   0.0000000), wk =   0.1250000
        k(    4) = (  -0.3750000   0.2165127   0.0000000), wk =   0.1250000
        k(    5) = (   0.5000000  -0.2886836   0.0000000), wk =   0.0625000
        k(    6) = (   0.0000000   0.1443418   0.0000000), wk =   0.0625000
        k(    7) = (  -0.1250000   0.2165127   0.0000000), wk =   0.1250000
        k(    8) = (  -0.2500000   0.2886836   0.0000000), wk =   0.1250000
        k(    9) = (   0.6250000  -0.2165127   0.0000000), wk =   0.1250000
        k(   10) = (   0.5000000  -0.1443418   0.0000000), wk =   0.1250000
        k(   11) = (   0.3750000  -0.0721709   0.0000000), wk =   0.1250000
        k(   12) = (   0.2500000   0.0000000   0.0000000), wk =   0.0625000
        k(   13) = (   0.0000000   0.2886836   0.0000000), wk =   0.0625000
        k(   14) = (  -0.1250000   0.3608545   0.0000000), wk =   0.1250000
        k(   15) = (   0.7500000  -0.1443418   0.0000000), wk =   0.1250000
        k(   16) = (   0.6250000  -0.0721709   0.0000000), wk =   0.1250000
        k(   17) = (   0.5000000   0.0000000   0.0000000), wk =   0.0625000
        k(   18) = (   0.0000000   0.4330254   0.0000000), wk =   0.0625000
        k(   19) = (   0.8750000  -0.0721709   0.0000000), wk =   0.1250000
        k(   20) = (   0.7500000   0.0000000   0.0000000), wk =   0.0625000
        k(   21) = (   0.0000000  -0.5773672   0.0000000), wk =   0.0312500

     Dense  grid:    90607 G-vectors     FFT dimensions: (  36,  36, 180)

     Smooth grid:    49349 G-vectors     FFT dimensions: (  27,  27, 144)

     Estimated max dynamical RAM per process >     344.31 MB

     Initial potential from superposition of free atoms

     starting charge    9.99886, renormalised to   10.00000

     negative rho (up, down):  1.002E-04 0.000E+00
     Starting wfcs are   10 randomized atomic wfcs

     total cpu time spent up to now is        3.0 secs

     Self-consistent Calculation

     iteration #  1     ecut=    35.00 Ry     beta= 0.70
     Davidson diagonalization with overlap
     ethr =  1.00E-02,  avg # of iterations =  3.6

     negative rho (up, down):  8.140E-05 0.000E+00

     total cpu time spent up to now is        6.8 secs

     total energy              =     -25.15078904 Ry
     estimated scf accuracy    <       0.16548028 Ry

     iteration #  2     ecut=    35.00 Ry     beta= 0.70
     Davidson diagonalization with overlap
     ethr =  1.65E-03,  avg # of iterations =  1.3

     negative rho (up, down):  9.746E-05 0.000E+00

     total cpu time spent up to now is        9.7 secs

     total energy              =     -25.16063500 Ry
     estimated scf accuracy    <       0.00464241 Ry

     iteration #  3     ecut=    35.00 Ry     beta= 0.70
     Davidson diagonalization with overlap
     c_bands:  1 eigenvalues not converged
     ethr =  4.64E-05,  avg # of iterations =  9.0

     negative rho (up, down):  9.957E-05 0.000E+00

     total cpu time spent up to now is       14.5 secs

     total energy              =     -25.16142381 Ry
     estimated scf accuracy    <       0.00026187 Ry

     iteration #  4     ecut=    35.00 Ry     beta= 0.70
     Davidson diagonalization with overlap
     ethr =  2.62E-06,  avg # of iterations =  6.1

     negative rho (up, down):  1.028E-04 0.000E+00

     total cpu time spent up to now is       18.4 secs

     total energy              =     -25.16146747 Ry
     estimated scf accuracy    <       0.00002483 Ry

     iteration #  5     ecut=    35.00 Ry     beta= 0.70
     Davidson diagonalization with overlap
     ethr =  2.48E-07,  avg # of iterations =  1.7

     negative rho (up, down):  1.027E-04 0.000E+00

     total cpu time spent up to now is       21.4 secs

     total energy              =     -25.16147042 Ry
     estimated scf accuracy    <       0.00000553 Ry

     iteration #  6     ecut=    35.00 Ry     beta= 0.70
     Davidson diagonalization with overlap
     ethr =  5.53E-08,  avg # of iterations =  1.1

     negative rho (up, down):  1.030E-04 0.000E+00

     total cpu time spent up to now is       24.3 secs

     End of self-consistent calculation

          k = 0.0000 0.0000 0.0000 (  6083 PWs)   bands (ev):

   -13.7001  -9.1434  -5.8786  -3.3914  -3.3760  -1.0522   0.5345   0.5512
     0.7901

          k =-0.1250 0.0722 0.0000 (  6144 PWs)   bands (ev):

   -13.5302  -9.1034  -5.8781  -4.5343  -3.6955  -0.4625   0.5851   1.0900
     1.1524

          k =-0.2500 0.1443 0.0000 (  6184 PWs)   bands (ev):

   -13.0340  -9.1188  -6.1398  -5.8389  -4.2442  -0.8118   1.1106   1.3810
     2.1647

          k =-0.3750 0.2165 0.0000 (  6202 PWs)   bands (ev):

   -12.2805  -9.6183  -6.8714  -5.9930  -4.6539  -1.1225   0.6473   1.3484
     3.0109

          k = 0.5000-0.2887 0.0000 (  6182 PWs)   bands (ev):

   -11.7057 -10.2158  -6.9495  -6.0946  -4.7995  -1.1962   0.2899   1.3302
     3.0258

          k = 0.0000 0.1443 0.0000 (  6144 PWs)   bands (ev):

   -13.5300  -9.1035  -5.8784  -4.5422  -3.6861  -0.4595   0.5890   1.0904
     1.1422

          k =-0.1250 0.2165 0.0000 (  6149 PWs)   bands (ev):

   -13.1960  -9.0848  -5.9036  -5.6026  -4.3542   0.1914   0.4412   1.2888
     1.6444

          k =-0.2500 0.2887 0.0000 (  6188 PWs)   bands (ev):

   -12.5601  -9.3332  -6.5580  -5.9930  -5.0500  -0.0551   1.1175   1.2893
     2.0519

          k = 0.6250-0.2165 0.0000 (  6209 PWs)   bands (ev):

   -11.7742 -10.0524  -6.8623  -6.1047  -5.4069  -0.1457   0.5208   1.3442
     2.2704

          k = 0.5000-0.1443 0.0000 (  6211 PWs)   bands (ev):

   -11.7752 -10.0508  -6.8626  -6.1033  -5.4090  -0.1446   0.5198   1.3443
     2.2698

          k = 0.3750-0.0722 0.0000 (  6188 PWs)   bands (ev):

   -12.5610  -9.3312  -6.5561  -5.9910  -5.0558  -0.0535   1.1193   1.2867
     2.0500

          k = 0.2500 0.0000 0.0000 (  6149 PWs)   bands (ev):

   -13.1966  -9.0840  -5.9029  -5.5949  -4.3644   0.1962   0.4319   1.2913
     1.6437

          k = 0.0000 0.2887 0.0000 (  6184 PWs)   bands (ev):

   -13.0332  -9.1201  -6.1447  -5.8399  -4.2373  -0.8055   1.1106   1.3802
     2.1640

          k =-0.1250 0.3609 0.0000 (  6188 PWs)   bands (ev):

   -12.5592  -9.3350  -6.5604  -5.9928  -5.0472  -0.0489   1.1180   1.2876
     2.0505

          k = 0.7500-0.1443 0.0000 (  6201 PWs)   bands (ev):

   -11.8325  -9.8917  -6.5796  -6.3689  -5.8447   0.7552   1.0461   1.8137
     2.1676

          k = 0.6250-0.0722 0.0000 (  6191 PWs)   bands (ev):

   -11.2005 -10.4815  -6.7064  -6.2697  -6.2196   0.6168   1.3927   1.4630
     2.0545

          k = 0.5000 0.0000 0.0000 (  6201 PWs)   bands (ev):

   -11.8354  -9.8864  -6.5779  -6.3686  -5.8493   0.7566   1.0457   1.8103
     2.1592

          k = 0.0000 0.4330 0.0000 (  6202 PWs)   bands (ev):

   -12.2776  -9.6239  -6.8727  -5.9949  -4.6484  -1.1164   0.6484   1.3460
     3.0103

          k = 0.8750-0.0722 0.0000 (  6209 PWs)   bands (ev):

   -11.7697 -10.0598  -6.8624  -6.1063  -5.4028  -0.1394   0.5222   1.3413
     2.2707

          k = 0.7500 0.0000 0.0000 (  6191 PWs)   bands (ev):

   -11.1934 -10.4904  -6.7067  -6.2657  -6.2216   0.6177   1.3913   1.4639
     2.0597

          k = 0.0000-0.5774 0.0000 (  6182 PWs)   bands (ev):

   -11.6983 -10.2269  -6.9485  -6.0977  -4.7943  -1.1902   0.2919   1.3267
     3.0261

     the Fermi energy is    -3.2684 ev

!    total energy              =     -25.16147121 Ry
     estimated scf accuracy    <       0.00000044 Ry
     smearing contrib. (-TS)   =       0.00001856 Ry
     internal energy E=F+TS    =     -25.16148977 Ry

     The total energy is F=E-TS. E is the sum of the following terms:
     one-electron contribution =    -110.85281819 Ry
     hartree contribution      =      56.74253671 Ry
     xc contribution           =     -13.64574999 Ry
     ewald contribution        =      42.59454171 Ry

     convergence has been achieved in   6 iterations

     negative rho (up, down):  1.030E-04 0.000E+00

     Forces acting on atoms (cartesian axes, Ry/au):

     atom    1 type  2   force =     0.00000000   -0.00000918   -0.00130500
     atom    2 type  1   force =     0.00000000   -0.00102470    0.00165993
     atom    3 type  1   force =     0.00000000    0.00102489   -0.00138948
     atom    4 type  2   force =     0.00000000    0.00000900    0.00103456

     Total force =     0.003092     Total SCF correction =     0.000405
     SCF correction compared to forces is large: reduce conv_thr to get better values

     BFGS Geometry Optimization

     number of scf cycles    =   1
     number of bfgs steps    =   0

     energy   new            =     -25.1614712116 Ry

     new trust radius        =       0.0019507372 bohr

     The maximum number of steps has been reached.

     End of BFGS Geometry Optimization

ATOMIC_POSITIONS (crystal)
H            -0.0000007216       -0.0000007216       -0.0000345202
Si           -0.0000805032       -0.0000805032        0.0750439088
Si            0.3330805177        0.3330805177        0.1109632452
H             0.3330007071        0.3330007071        0.1860273663



     Writing output data file /home/jesus/Documentos/Nanociencia_DFT/silicano.save/
     NEW-OLD atomic charge density approx. for the potential

     negative rho (up, down):  1.030E-04 0.000E+00

     Writing output data file /home/jesus/Documentos/Nanociencia_DFT/silicano.save/
 
     init_run     :      1.94s CPU      2.18s WALL (       1 calls)
     electrons    :     19.84s CPU     21.33s WALL (       1 calls)
     update_pot   :      0.54s CPU      0.55s WALL (       1 calls)
     forces       :      0.87s CPU      0.98s WALL (       1 calls)

     Called by init_run:
     wfcinit      :      0.85s CPU      0.87s WALL (       1 calls)
     potinit      :      0.28s CPU      0.31s WALL (       1 calls)
     hinit0       :      0.56s CPU      0.58s WALL (       1 calls)

     Called by electrons:
     c_bands      :     14.09s CPU     14.14s WALL (       6 calls)
     sum_band     :      3.78s CPU      4.44s WALL (       6 calls)
     v_of_rho     :      0.82s CPU      0.87s WALL (       8 calls)
     newd         :      1.63s CPU      2.62s WALL (       8 calls)
     mix_rho      :      0.08s CPU      0.08s WALL (       6 calls)

     Called by c_bands:
     init_us_2    :      0.62s CPU      0.63s WALL (     294 calls)
     cegterg      :     11.62s CPU     11.67s WALL (     126 calls)

     Called by *egterg:
     cdiaghg      :      0.09s CPU      0.09s WALL (     605 calls)
     h_psi        :     10.75s CPU     10.80s WALL (     626 calls)
     s_psi        :      0.44s CPU      0.44s WALL (     626 calls)
     g_psi        :      0.05s CPU      0.05s WALL (     479 calls)

     Called by h_psi:
     h_psi:calbec :      0.49s CPU      0.50s WALL (     626 calls)
     vloc_psi     :      9.75s CPU      9.80s WALL (     626 calls)
     add_vuspsi   :      0.44s CPU      0.45s WALL (     626 calls)

     General routines
     calbec       :      0.71s CPU      0.71s WALL (     836 calls)
     fft          :      0.34s CPU      0.36s WALL (     114 calls)
     ffts         :      0.02s CPU      0.02s WALL (      14 calls)
     fftw         :      9.97s CPU     10.02s WALL (    8148 calls)
     interpolate  :      0.05s CPU      0.05s WALL (       8 calls)
     davcio       :      0.00s CPU      0.01s WALL (      21 calls)
 
     Parallel routines
 
     PWSCF        :     24.23s CPU     26.21s WALL

 
   This run was terminated on:  23:52:42   1Apr2021            

=------------------------------------------------------------------------------=
   JOB DONE.
=------------------------------------------------------------------------------=
