
     Program PWSCF v.6.6 starts on 31Mar2021 at 17:13:33 

     This program is part of the open-source Quantum ESPRESSO suite
     for quantum simulation of materials; please cite
         "P. Giannozzi et al., J. Phys.:Condens. Matter 21 395502 (2009);
         "P. Giannozzi et al., J. Phys.:Condens. Matter 29 465901 (2017);
          URL http://www.quantum-espresso.org", 
     in publications or presentations arising from this work. More details at
     http://www.quantum-espresso.org/quote

     Parallel version (MPI), running on     1 processors

     MPI processes distributed on     1 nodes
     Fft bands division:     nmany     =       1
     Waiting for input...
     Reading input from standard input
Warning: card &CELL ignored
Warning: card   CELL_DYNAMICS='BFGS', ignored
Warning: card   CELL_DOFREE='ALL', ignored
Warning: card / ignored

     Current dimensions of program PWSCF are:
     Max number of different atomic species (ntypx) = 10
     Max number of k-points (npk) =  40000
     Max angular momentum in pseudopotentials (lmaxx) =  3

     File /home/jesus/Documentos/Nanociencia_DFT/silicano.update deleted, as requested

     File /home/jesus/Documentos/Nanociencia_DFT/silicano.bfgs deleted, as requested
     file H.pbe-kjpaw_psl.1.0.0.UPF: wavefunction(s)  1S renormalized

     Subspace diagonalization in iterative solution of the eigenvalue problem:
     a serial algorithm will be used

     Message from routine setup:
     using ibrav=0 with symmetry is DISCOURAGED, use correct ibrav instead
 
     G-vector sticks info
     --------------------
     sticks:   dense  smooth     PW     G-vecs:    dense   smooth      PW
     Sum        1099     733    223               150045    81937   13815
 


     bravais-lattice index     =            0
     lattice parameter (alat)  =       8.6927  a.u.
     unit-cell volume          =    2926.0985 (a.u.)^3
     number of atoms/cell      =            4
     number of atomic types    =            2
     number of electrons       =        10.00
     number of Kohn-Sham states=            9
     kinetic-energy cutoff     =      35.0000  Ry
     charge density cutoff     =     210.0000  Ry
     convergence threshold     =      1.0E-06
     mixing beta               =       0.7000
     number of iterations used =            8  plain     mixing
     Exchange-correlation= SLA PW PBX PBC
                           (   1   4   3   4   0   0   0)
     nstep                     =            1


     celldm(1)=   8.692740  celldm(2)=   0.000000  celldm(3)=   0.000000
     celldm(4)=   0.000000  celldm(5)=   0.000000  celldm(6)=   0.000000

     crystal axes: (cart. coord. in units of alat)
               a(1) = (   0.500000   0.866000   0.000000 )  
               a(2) = (  -0.500000   0.866000   0.000000 )  
               a(3) = (   0.000000   0.000000   5.144000 )  

     reciprocal axes: (cart. coord. in units 2 pi/alat)
               b(1) = (  1.000000  0.577367  0.000000 )  
               b(2) = ( -1.000000  0.577367  0.000000 )  
               b(3) = (  0.000000  0.000000  0.194401 )  


     PseudoPot. # 1 for Si read from file:
     /home/jesus/Nanociencia_DFT/pseudopotenciales/Si.pbe-n-rrkjus_psl.1.0.0.UPF
     MD5 check sum: fa25574f73a70a4139f2adfbefec430c
     Pseudo is Ultrasoft + core correction, Zval =  4.0
     Generated using "atomic" code by A. Dal Corso v.6.3
     Using radial grid of 1141 points,  6 beta functions with: 
                l(1) =   0
                l(2) =   0
                l(3) =   1
                l(4) =   1
                l(5) =   2
                l(6) =   2
     Q(r) pseudized with 0 coefficients 


     PseudoPot. # 2 for H  read from file:
     /home/jesus/Nanociencia_DFT/pseudopotenciales/H.pbe-kjpaw_psl.1.0.0.UPF
     MD5 check sum: d81a744832360e4a8af0b0b5b123bc2a
     Pseudo is Projector augmented-wave, Zval =  1.0
     Generated using "atomic" code by A. Dal Corso v.6.3MaX
     Shape of augmentation charge: PSQ
     Using radial grid of  929 points,  2 beta functions with: 
                l(1) =   0
                l(2) =   0
     Q(r) pseudized with 0 coefficients 


     atomic species   valence    mass     pseudopotential
        Si             4.00    28.08550     Si( 1.00)
        H              1.00     1.00800     H ( 1.00)

      2 Sym. Ops. (no inversion) found



   Cartesian axes

     site n.     atom                  positions (alat units)
         1           H   tau(   1) = (   0.0000000   0.0000000   0.0000000  )
         2           Si  tau(   2) = (   0.0000000   0.0000000   0.3858000  )
         3           Si  tau(   3) = (   0.0000000   0.5767560   0.5709840  )
         4           H   tau(   4) = (   0.0000000   0.5767560   0.9567840  )

     number of k points=    21  Methfessel-Paxton smearing, width (Ry)=  0.0100
                       cart. coord. in units 2pi/alat
        k(    1) = (   0.0000000   0.0000000   0.0000000), wk =   0.0312500
        k(    2) = (  -0.1250000   0.0721709   0.0000000), wk =   0.1250000
        k(    3) = (  -0.2500000   0.1443418   0.0000000), wk =   0.1250000
        k(    4) = (  -0.3750000   0.2165127   0.0000000), wk =   0.1250000
        k(    5) = (   0.5000000  -0.2886836   0.0000000), wk =   0.0625000
        k(    6) = (   0.0000000   0.1443418   0.0000000), wk =   0.0625000
        k(    7) = (  -0.1250000   0.2165127   0.0000000), wk =   0.1250000
        k(    8) = (  -0.2500000   0.2886836   0.0000000), wk =   0.1250000
        k(    9) = (   0.6250000  -0.2165127   0.0000000), wk =   0.1250000
        k(   10) = (   0.5000000  -0.1443418   0.0000000), wk =   0.1250000
        k(   11) = (   0.3750000  -0.0721709   0.0000000), wk =   0.1250000
        k(   12) = (   0.2500000   0.0000000   0.0000000), wk =   0.0625000
        k(   13) = (   0.0000000   0.2886836   0.0000000), wk =   0.0625000
        k(   14) = (  -0.1250000   0.3608545   0.0000000), wk =   0.1250000
        k(   15) = (   0.7500000  -0.1443418   0.0000000), wk =   0.1250000
        k(   16) = (   0.6250000  -0.0721709   0.0000000), wk =   0.1250000
        k(   17) = (   0.5000000   0.0000000   0.0000000), wk =   0.0625000
        k(   18) = (   0.0000000   0.4330254   0.0000000), wk =   0.0625000
        k(   19) = (   0.8750000  -0.0721709   0.0000000), wk =   0.1250000
        k(   20) = (   0.7500000   0.0000000   0.0000000), wk =   0.0625000
        k(   21) = (   0.0000000  -0.5773672   0.0000000), wk =   0.0312500

     Dense  grid:   150045 G-vectors     FFT dimensions: (  45,  45, 216)

     Smooth grid:    81937 G-vectors     FFT dimensions: (  36,  36, 180)

     Estimated max dynamical RAM per process >     572.13 MB

     Initial potential from superposition of free atoms

     starting charge    9.99886, renormalised to   10.00000

     negative rho (up, down):  1.450E-04 0.000E+00
     Starting wfcs are   10 randomized atomic wfcs
     Checking if some PAW data can be deallocated... 

     total cpu time spent up to now is        5.3 secs

     Self-consistent Calculation

     iteration #  1     ecut=    35.00 Ry     beta= 0.70
     Davidson diagonalization with overlap
     ethr =  1.00E-02,  avg # of iterations =  2.7

     negative rho (up, down):  9.054E-05 0.000E+00

     total cpu time spent up to now is       14.4 secs

     total energy              =     -24.97166162 Ry
     estimated scf accuracy    <       0.10436897 Ry

     iteration #  2     ecut=    35.00 Ry     beta= 0.70
     Davidson diagonalization with overlap
     ethr =  1.04E-03,  avg # of iterations =  2.0

     negative rho (up, down):  1.084E-04 0.000E+00

     total cpu time spent up to now is       22.2 secs

     total energy              =     -24.98497176 Ry
     estimated scf accuracy    <       0.01946571 Ry

     iteration #  3     ecut=    35.00 Ry     beta= 0.70
     Davidson diagonalization with overlap
     ethr =  1.95E-04,  avg # of iterations =  2.2

     negative rho (up, down):  1.208E-04 0.000E+00

     total cpu time spent up to now is       30.2 secs

     total energy              =     -24.98955768 Ry
     estimated scf accuracy    <       0.00179430 Ry

     iteration #  4     ecut=    35.00 Ry     beta= 0.70
     Davidson diagonalization with overlap
     ethr =  1.79E-05,  avg # of iterations =  5.3

     negative rho (up, down):  1.224E-04 0.000E+00

     total cpu time spent up to now is       40.1 secs

     total energy              =     -24.98977462 Ry
     estimated scf accuracy    <       0.00007360 Ry

     iteration #  5     ecut=    35.00 Ry     beta= 0.70
     Davidson diagonalization with overlap
     ethr =  7.36E-07,  avg # of iterations =  4.0

     negative rho (up, down):  1.231E-04 0.000E+00

     total cpu time spent up to now is       49.5 secs

     total energy              =     -24.98980360 Ry
     estimated scf accuracy    <       0.00001134 Ry

     iteration #  6     ecut=    35.00 Ry     beta= 0.70
     Davidson diagonalization with overlap
     ethr =  1.13E-07,  avg # of iterations =  1.5

     negative rho (up, down):  1.237E-04 0.000E+00

     total cpu time spent up to now is       56.9 secs

     total energy              =     -24.98980477 Ry
     estimated scf accuracy    <       0.00000652 Ry

     iteration #  7     ecut=    35.00 Ry     beta= 0.70
     Davidson diagonalization with overlap
     ethr =  6.52E-08,  avg # of iterations =  1.0

     negative rho (up, down):  1.237E-04 0.000E+00

     total cpu time spent up to now is       64.1 secs

     End of self-consistent calculation

          k = 0.0000 0.0000 0.0000 ( 10255 PWs)   bands (ev):

   -12.5823  -9.1027  -6.2182  -4.3415  -4.3287  -4.0960  -1.1123  -1.0969
    -0.8325

          k =-0.1250 0.0722 0.0000 ( 10184 PWs)   bands (ev):

   -12.4758  -9.1677  -6.2251  -5.3945  -4.5071  -3.0524  -1.1532  -0.7687
    -0.7601

          k =-0.2500 0.1443 0.0000 ( 10222 PWs)   bands (ev):

   -12.1687  -9.4270  -6.2940  -6.1969  -4.8321  -2.6281  -0.8714  -0.4452
    -0.0517

          k =-0.3750 0.2165 0.0000 ( 10232 PWs)   bands (ev):

   -11.7183  -9.9172  -6.6277  -6.3047  -5.0885  -2.7136  -0.7867  -0.2810
     0.5225

          k = 0.5000-0.2887 0.0000 ( 10250 PWs)   bands (ev):

   -11.4055 -10.2712  -6.7024  -6.3462  -5.1818  -2.7660  -0.8302  -0.3162
     0.6939

          k = 0.0000 0.1443 0.0000 ( 10184 PWs)   bands (ev):

   -12.4756  -9.1681  -6.2253  -5.4000  -4.4990  -3.0541  -1.1445  -0.7785
    -0.7599

          k =-0.1250 0.2165 0.0000 ( 10220 PWs)   bands (ev):

   -12.2679  -9.3320  -6.2471  -6.0256  -4.8598  -2.3614  -1.2042  -0.6855
    -0.0748

          k =-0.2500 0.2887 0.0000 ( 10245 PWs)   bands (ev):

   -11.8794  -9.7245  -6.4802  -6.2957  -5.2826  -2.0798  -0.8718  -0.4441
     0.2813

          k = 0.6250-0.2165 0.0000 ( 10248 PWs)   bands (ev):

   -11.4241 -10.2300  -6.6418  -6.3519  -5.5143  -2.1393  -0.7819  -0.2440
     0.3375

          k = 0.5000-0.1443 0.0000 ( 10248 PWs)   bands (ev):

   -11.4250 -10.2286  -6.6416  -6.3513  -5.5159  -2.1385  -0.7822  -0.2422
     0.3349

          k = 0.3750-0.0722 0.0000 ( 10245 PWs)   bands (ev):

   -11.8804  -9.7224  -6.4786  -6.2946  -5.2875  -2.0769  -0.8754  -0.4424
     0.2764

          k = 0.2500 0.0000 0.0000 ( 10220 PWs)   bands (ev):

   -12.2685  -9.3306  -6.2467  -6.0206  -4.8681  -2.3578  -1.2138  -0.6842
    -0.0694

          k = 0.0000 0.2887 0.0000 ( 10222 PWs)   bands (ev):

   -12.1676  -9.4292  -6.2972  -6.1984  -4.8259  -2.6237  -0.8698  -0.4431
    -0.0583

          k =-0.1250 0.3609 0.0000 ( 10245 PWs)   bands (ev):

   -11.8784  -9.7264  -6.4826  -6.2954  -5.2801  -2.0747  -0.8722  -0.4437
     0.2770

          k = 0.7500-0.1443 0.0000 ( 10228 PWs)   bands (ev):

   -11.4405 -10.1911  -6.5312  -6.3866  -5.8062  -1.2447  -0.8525  -0.3355
     0.3111

          k = 0.6250-0.0722 0.0000 ( 10242 PWs)   bands (ev):

   -11.0720 -10.5747  -6.5343  -6.4085  -6.0170  -1.1311  -0.7293  -0.0808
     0.1245

          k = 0.5000 0.0000 0.0000 ( 10228 PWs)   bands (ev):

   -11.4435 -10.1864  -6.5295  -6.3850  -5.8115  -1.2415  -0.8578  -0.3310
     0.3047

          k = 0.0000 0.4330 0.0000 ( 10232 PWs)   bands (ev):

   -11.7151  -9.9228  -6.6303  -6.3054  -5.0835  -2.7074  -0.7863  -0.2791
     0.5191

          k = 0.8750-0.0722 0.0000 ( 10248 PWs)   bands (ev):

   -11.4196 -10.2366  -6.6437  -6.3525  -5.5104  -2.1340  -0.7814  -0.2412
     0.3345

          k = 0.7500 0.0000 0.0000 ( 10242 PWs)   bands (ev):

   -11.0657 -10.5821  -6.5360  -6.4090  -6.0138  -1.1305  -0.7280  -0.0820
     0.1279

          k = 0.0000-0.5774 0.0000 ( 10250 PWs)   bands (ev):

   -11.3988 -10.2808  -6.7040  -6.3473  -5.1771  -2.7596  -0.8299  -0.3150
     0.6918

     the Fermi energy is    -4.2262 ev

!    total energy              =     -24.98980588 Ry
     estimated scf accuracy    <       0.00000002 Ry
     smearing contrib. (-TS)   =       0.00005725 Ry
     internal energy E=F+TS    =     -24.98986313 Ry

     The total energy is F=E-TS. E is the sum of the following terms:
     one-electron contribution =     -97.72160222 Ry
     hartree contribution      =      49.79142990 Ry
     xc contribution           =     -13.07031349 Ry
     ewald contribution        =      36.01090710 Ry
     one-center paw contrib.   =      -0.00028442 Ry

     convergence has been achieved in   7 iterations

     negative rho (up, down):  1.237E-04 0.000E+00

     Forces acting on atoms (cartesian axes, Ry/au):

     atom    1 type  2   force =     0.00000000    0.00002006    0.09325198
     atom    2 type  1   force =     0.00000000   -0.00027513   -0.02949428
     atom    3 type  1   force =     0.00000000    0.00027675    0.02948886
     atom    4 type  2   force =     0.00000000   -0.00002168   -0.09324655

     Total force =     0.138313     Total SCF correction =     0.000049

     BFGS Geometry Optimization

     number of scf cycles    =   1
     number of bfgs steps    =   0

     energy   new            =     -24.9898058808 Ry

     new trust radius        =       0.0932519787 bohr

     The maximum number of steps has been reached.

     End of BFGS Geometry Optimization

ATOMIC_POSITIONS (crystal)
H             0.0000013322        0.0000013322        0.0020854529
Si           -0.0000182739       -0.0000182739        0.0743404008
Si            0.3330183815        0.3330183815        0.1116594779
H             0.3329985602        0.3329985602        0.1839146684



     Writing output data file /home/jesus/Documentos/Nanociencia_DFT/silicano.save/
     NEW-OLD atomic charge density approx. for the potential

     negative rho (up, down):  1.283E-04 0.000E+00

     Writing output data file /home/jesus/Documentos/Nanociencia_DFT/silicano.save/
 
     init_run     :      3.98s CPU      4.41s WALL (       1 calls)
     electrons    :     55.76s CPU     58.85s WALL (       1 calls)
     update_pot   :      1.02s CPU      1.02s WALL (       1 calls)
     forces       :      1.72s CPU      1.95s WALL (       1 calls)

     Called by init_run:
     wfcinit      :      2.22s CPU      2.23s WALL (       1 calls)
     potinit      :      0.52s CPU      0.58s WALL (       1 calls)
     hinit0       :      0.71s CPU      0.74s WALL (       1 calls)

     Called by electrons:
     c_bands      :     39.23s CPU     39.33s WALL (       7 calls)
     sum_band     :     11.65s CPU     13.05s WALL (       7 calls)
     v_of_rho     :      1.94s CPU      2.05s WALL (       9 calls)
     newd         :      3.83s CPU      5.83s WALL (       9 calls)
     PAW_pot      :      0.01s CPU      0.01s WALL (      10 calls)
     mix_rho      :      0.23s CPU      0.23s WALL (       7 calls)

     Called by c_bands:
     init_us_2    :      1.42s CPU      1.44s WALL (     357 calls)
     cegterg      :     34.04s CPU     34.13s WALL (     147 calls)

     Called by *egterg:
     cdiaghg      :      0.09s CPU      0.09s WALL (     539 calls)
     h_psi        :     32.91s CPU     32.99s WALL (     560 calls)
     s_psi        :      0.90s CPU      0.91s WALL (     560 calls)
     g_psi        :      0.09s CPU      0.09s WALL (     392 calls)

     Called by h_psi:
     h_psi:calbec :      0.90s CPU      0.90s WALL (     560 calls)
     vloc_psi     :     30.95s CPU     31.02s WALL (     560 calls)
     add_vuspsi   :      0.91s CPU      0.91s WALL (     560 calls)

     General routines
     calbec       :      1.38s CPU      1.39s WALL (     812 calls)
     fft          :      0.97s CPU      1.00s WALL (     127 calls)
     ffts         :      0.05s CPU      0.05s WALL (      16 calls)
     fftw         :     30.09s CPU     30.17s WALL (    8601 calls)
     interpolate  :      0.13s CPU      0.13s WALL (       9 calls)
     davcio       :      0.00s CPU      0.01s WALL (      21 calls)
 
     Parallel routines
 
     PWSCF        :   1m 3.99s CPU   1m 7.99s WALL

 
   This run was terminated on:  17:14:41  31Mar2021            

=------------------------------------------------------------------------------=
   JOB DONE.
=------------------------------------------------------------------------------=
