
     Program PWSCF v.6.6 starts on  1Apr2021 at 23:32: 6 

     This program is part of the open-source Quantum ESPRESSO suite
     for quantum simulation of materials; please cite
         "P. Giannozzi et al., J. Phys.:Condens. Matter 21 395502 (2009);
         "P. Giannozzi et al., J. Phys.:Condens. Matter 29 465901 (2017);
          URL http://www.quantum-espresso.org", 
     in publications or presentations arising from this work. More details at
     http://www.quantum-espresso.org/quote

     Parallel version (MPI), running on     1 processors

     MPI processes distributed on     1 nodes
     Fft bands division:     nmany     =       1
     Waiting for input...
     Reading input from standard input
Warning: card &CELL ignored
Warning: card   CELL_DYNAMICS='BFGS', ignored
Warning: card   CELL_DOFREE='ALL', ignored
Warning: card / ignored

     Current dimensions of program PWSCF are:
     Max number of different atomic species (ntypx) = 10
     Max number of k-points (npk) =  40000
     Max angular momentum in pseudopotentials (lmaxx) =  3

     File /home/jesus/Documentos/Nanociencia_DFT/silicano.update deleted, as requested

     File /home/jesus/Documentos/Nanociencia_DFT/silicano.bfgs deleted, as requested

     Subspace diagonalization in iterative solution of the eigenvalue problem:
     a serial algorithm will be used

     Message from routine setup:
     using ibrav=0 with symmetry is DISCOURAGED, use correct ibrav instead
 
     G-vector sticks info
     --------------------
     sticks:   dense  smooth     PW     G-vecs:    dense   smooth      PW
     Sum         769     511    163                90221    49001    8823
 


     bravais-lattice index     =            0
     lattice parameter (alat)  =       7.3321  a.u.
     unit-cell volume          =    1755.9439 (a.u.)^3
     number of atoms/cell      =            4
     number of atomic types    =            2
     number of electrons       =        10.00
     number of Kohn-Sham states=            9
     kinetic-energy cutoff     =      35.0000  Ry
     charge density cutoff     =     210.0000  Ry
     convergence threshold     =      1.0E-06
     mixing beta               =       0.7000
     number of iterations used =            8  plain     mixing
     Exchange-correlation= PBE
                           (   1   4   3   4   0   0   0)
     nstep                     =            1


     celldm(1)=   7.332137  celldm(2)=   0.000000  celldm(3)=   0.000000
     celldm(4)=   0.000000  celldm(5)=   0.000000  celldm(6)=   0.000000

     crystal axes: (cart. coord. in units of alat)
               a(1) = (   0.500000   0.866000   0.000000 )  
               a(2) = (  -0.500000   0.866000   0.000000 )  
               a(3) = (   0.000000   0.000000   5.144000 )  

     reciprocal axes: (cart. coord. in units 2 pi/alat)
               b(1) = (  1.000000  0.577367  0.000000 )  
               b(2) = ( -1.000000  0.577367  0.000000 )  
               b(3) = (  0.000000  0.000000  0.194401 )  


     PseudoPot. # 1 for Si read from file:
     /home/jesus/Nanociencia_DFT/pseudopotenciales/Si.pbe-n-rrkjus_psl.1.0.0.UPF
     MD5 check sum: fa25574f73a70a4139f2adfbefec430c
     Pseudo is Ultrasoft + core correction, Zval =  4.0
     Generated using "atomic" code by A. Dal Corso v.6.3
     Using radial grid of 1141 points,  6 beta functions with: 
                l(1) =   0
                l(2) =   0
                l(3) =   1
                l(4) =   1
                l(5) =   2
                l(6) =   2
     Q(r) pseudized with 0 coefficients 


     PseudoPot. # 2 for H  read from file:
     /home/jesus/Nanociencia_DFT/pseudopotenciales/H.pbe-rrkjus_psl.1.0.0.UPF
     MD5 check sum: 3f4114867bd07edc7f1424d066fc1888
     Pseudo is Ultrasoft, Zval =  1.0
     Generated using "atomic" code by A. Dal Corso v.6.3MaX
     Using radial grid of  929 points,  2 beta functions with: 
                l(1) =   0
                l(2) =   0
     Q(r) pseudized with 0 coefficients 


     atomic species   valence    mass     pseudopotential
        Si             4.00    28.08550     Si( 1.00)
        H              1.00     1.00800     H ( 1.00)

      2 Sym. Ops. (no inversion) found



   Cartesian axes

     site n.     atom                  positions (alat units)
         1           H   tau(   1) = (   0.0000000   0.0000000   0.0000000  )
         2           Si  tau(   2) = (   0.0000000   0.0000000   0.3858000  )
         3           Si  tau(   3) = (   0.0000000   0.5767560   0.5709840  )
         4           H   tau(   4) = (   0.0000000   0.5767560   0.9567840  )

     number of k points=    21  Methfessel-Paxton smearing, width (Ry)=  0.0100
                       cart. coord. in units 2pi/alat
        k(    1) = (   0.0000000   0.0000000   0.0000000), wk =   0.0312500
        k(    2) = (  -0.1250000   0.0721709   0.0000000), wk =   0.1250000
        k(    3) = (  -0.2500000   0.1443418   0.0000000), wk =   0.1250000
        k(    4) = (  -0.3750000   0.2165127   0.0000000), wk =   0.1250000
        k(    5) = (   0.5000000  -0.2886836   0.0000000), wk =   0.0625000
        k(    6) = (   0.0000000   0.1443418   0.0000000), wk =   0.0625000
        k(    7) = (  -0.1250000   0.2165127   0.0000000), wk =   0.1250000
        k(    8) = (  -0.2500000   0.2886836   0.0000000), wk =   0.1250000
        k(    9) = (   0.6250000  -0.2165127   0.0000000), wk =   0.1250000
        k(   10) = (   0.5000000  -0.1443418   0.0000000), wk =   0.1250000
        k(   11) = (   0.3750000  -0.0721709   0.0000000), wk =   0.1250000
        k(   12) = (   0.2500000   0.0000000   0.0000000), wk =   0.0625000
        k(   13) = (   0.0000000   0.2886836   0.0000000), wk =   0.0625000
        k(   14) = (  -0.1250000   0.3608545   0.0000000), wk =   0.1250000
        k(   15) = (   0.7500000  -0.1443418   0.0000000), wk =   0.1250000
        k(   16) = (   0.6250000  -0.0721709   0.0000000), wk =   0.1250000
        k(   17) = (   0.5000000   0.0000000   0.0000000), wk =   0.0625000
        k(   18) = (   0.0000000   0.4330254   0.0000000), wk =   0.0625000
        k(   19) = (   0.8750000  -0.0721709   0.0000000), wk =   0.1250000
        k(   20) = (   0.7500000   0.0000000   0.0000000), wk =   0.0625000
        k(   21) = (   0.0000000  -0.5773672   0.0000000), wk =   0.0312500

     Dense  grid:    90221 G-vectors     FFT dimensions: (  36,  36, 180)

     Smooth grid:    49001 G-vectors     FFT dimensions: (  27,  27, 144)

     Estimated max dynamical RAM per process >     342.86 MB

     Initial potential from superposition of free atoms

     starting charge    9.99886, renormalised to   10.00000

     negative rho (up, down):  1.001E-04 0.000E+00
     Starting wfcs are   10 randomized atomic wfcs

     total cpu time spent up to now is        2.9 secs

     Self-consistent Calculation

     iteration #  1     ecut=    35.00 Ry     beta= 0.70
     Davidson diagonalization with overlap
     ethr =  1.00E-02,  avg # of iterations =  3.6

     negative rho (up, down):  8.153E-05 0.000E+00

     total cpu time spent up to now is        6.6 secs

     total energy              =     -25.15059267 Ry
     estimated scf accuracy    <       0.16698937 Ry

     iteration #  2     ecut=    35.00 Ry     beta= 0.70
     Davidson diagonalization with overlap
     ethr =  1.67E-03,  avg # of iterations =  1.3

     negative rho (up, down):  9.670E-05 0.000E+00

     total cpu time spent up to now is        9.3 secs

     total energy              =     -25.16056770 Ry
     estimated scf accuracy    <       0.00461287 Ry

     iteration #  3     ecut=    35.00 Ry     beta= 0.70
     Davidson diagonalization with overlap
     c_bands:  1 eigenvalues not converged
     ethr =  4.61E-05,  avg # of iterations =  8.6

     negative rho (up, down):  9.864E-05 0.000E+00

     total cpu time spent up to now is       13.8 secs

     total energy              =     -25.16134986 Ry
     estimated scf accuracy    <       0.00025299 Ry

     iteration #  4     ecut=    35.00 Ry     beta= 0.70
     Davidson diagonalization with overlap
     ethr =  2.53E-06,  avg # of iterations =  5.5

     negative rho (up, down):  1.017E-04 0.000E+00

     total cpu time spent up to now is       17.4 secs

     total energy              =     -25.16139201 Ry
     estimated scf accuracy    <       0.00002449 Ry

     iteration #  5     ecut=    35.00 Ry     beta= 0.70
     Davidson diagonalization with overlap
     ethr =  2.45E-07,  avg # of iterations =  1.7

     negative rho (up, down):  1.017E-04 0.000E+00

     total cpu time spent up to now is       20.3 secs

     total energy              =     -25.16139499 Ry
     estimated scf accuracy    <       0.00000505 Ry

     iteration #  6     ecut=    35.00 Ry     beta= 0.70
     Davidson diagonalization with overlap
     ethr =  5.05E-08,  avg # of iterations =  1.2

     negative rho (up, down):  1.020E-04 0.000E+00

     total cpu time spent up to now is       23.1 secs

     End of self-consistent calculation

          k = 0.0000 0.0000 0.0000 (  6035 PWs)   bands (ev):

   -13.7184  -9.1477  -5.8720  -3.3730  -3.3575  -1.0140   0.5595   0.5762
     0.8122

          k =-0.1250 0.0722 0.0000 (  6088 PWs)   bands (ev):

   -13.5475  -9.1060  -5.8713  -4.5196  -3.6796  -0.4332   0.6088   1.1176
     1.1821

          k =-0.2500 0.1443 0.0000 (  6132 PWs)   bands (ev):

   -13.0482  -9.1166  -6.1362  -5.8312  -4.2320  -0.7901   1.1337   1.4022
     2.4403

          k =-0.3750 0.2165 0.0000 (  6144 PWs)   bands (ev):

   -12.2897  -9.6146  -6.8747  -5.9862  -4.6443  -1.1030   0.6619   1.3757
     3.0465

          k = 0.5000-0.2887 0.0000 (  6142 PWs)   bands (ev):

   -11.7101 -10.2167  -6.9523  -6.0891  -4.7907  -1.1772   0.3029   1.3561
     3.0580

          k = 0.0000 0.1443 0.0000 (  6088 PWs)   bands (ev):

   -13.5473  -9.1061  -5.8715  -4.5275  -3.6702  -0.4302   0.6127   1.1179
     1.1719

          k =-0.1250 0.2165 0.0000 (  6119 PWs)   bands (ev):

   -13.2113  -9.0842  -5.8967  -5.5939  -4.3440   0.2184   0.4661   1.3171
     1.6600

          k =-0.2500 0.2887 0.0000 (  6140 PWs)   bands (ev):

   -12.5713  -9.3283  -6.5583  -5.9865  -5.0441  -0.0313   1.1384   1.3135
     2.0784

          k = 0.6250-0.2165 0.0000 (  6164 PWs)   bands (ev):

   -11.7797 -10.0506  -6.8651  -6.0991  -5.4030  -0.1219   0.5354   1.3704
     2.2974

          k = 0.5000-0.1443 0.0000 (  6164 PWs)   bands (ev):

   -11.7807 -10.0489  -6.8654  -6.0977  -5.4051  -0.1207   0.5344   1.3705
     2.2969

          k = 0.3750-0.0722 0.0000 (  6140 PWs)   bands (ev):

   -12.5722  -9.3264  -6.5564  -5.9846  -5.0498  -0.0297   1.1402   1.3106
     2.0765

          k = 0.2500 0.0000 0.0000 (  6119 PWs)   bands (ev):

   -13.2118  -9.0834  -5.8961  -5.5862  -4.3541   0.2232   0.4569   1.3195
     1.6593

          k = 0.0000 0.2887 0.0000 (  6132 PWs)   bands (ev):

   -13.0474  -9.1180  -6.1412  -5.8322  -4.2252  -0.7838   1.1336   1.4011
     2.1810

          k =-0.1250 0.3609 0.0000 (  6140 PWs)   bands (ev):

   -12.5704  -9.3301  -6.5607  -5.9864  -5.0412  -0.0251   1.1389   1.3115
     2.0772

          k = 0.7500-0.1443 0.0000 (  6153 PWs)   bands (ev):

   -11.8389  -9.8870  -6.5793  -6.3703  -5.8408   0.7695   1.0693   1.8376
     2.1920

          k = 0.6250-0.0722 0.0000 (  6153 PWs)   bands (ev):

   -11.2022 -10.4802  -6.7109  -6.2700  -6.2149   0.6287   1.4160   1.4858
     2.0923

          k = 0.5000 0.0000 0.0000 (  6153 PWs)   bands (ev):

   -11.8418  -9.8818  -6.5777  -6.3700  -5.8453   0.7708   1.0690   1.8341
     2.1838

          k = 0.0000 0.4330 0.0000 (  6144 PWs)   bands (ev):

   -12.2868  -9.6202  -6.8759  -5.9881  -4.6387  -1.0970   0.6631   1.3733
     3.0460

          k = 0.8750-0.0722 0.0000 (  6164 PWs)   bands (ev):

   -11.7752 -10.0579  -6.8651  -6.1008  -5.3989  -0.1156   0.5368   1.3674
     2.2978

          k = 0.7500 0.0000 0.0000 (  6153 PWs)   bands (ev):

   -11.1952 -10.4891  -6.7111  -6.2660  -6.2169   0.6296   1.4146   1.4867
     2.0975

          k = 0.0000-0.5774 0.0000 (  6142 PWs)   bands (ev):

   -11.7028 -10.2278  -6.9512  -6.0922  -4.7855  -1.1712   0.3049   1.3525
     3.0584

     the Fermi energy is    -3.2500 ev

!    total energy              =     -25.16139573 Ry
     estimated scf accuracy    <       0.00000042 Ry
     smearing contrib. (-TS)   =       0.00001853 Ry
     internal energy E=F+TS    =     -25.16141426 Ry

     The total energy is F=E-TS. E is the sum of the following terms:
     one-electron contribution =    -111.04421816 Ry
     hartree contribution      =      56.84450812 Ry
     xc contribution           =     -13.65504770 Ry
     ewald contribution        =      42.69334348 Ry

     convergence has been achieved in   6 iterations

     negative rho (up, down):  1.020E-04 0.000E+00

     Forces acting on atoms (cartesian axes, Ry/au):

     atom    1 type  2   force =     0.00000000   -0.00000983   -0.00351333
     atom    2 type  1   force =     0.00000000   -0.00104528    0.00201592
     atom    3 type  1   force =     0.00000000    0.00104527   -0.00188223
     atom    4 type  2   force =     0.00000000    0.00000984    0.00337964

     Total force =     0.005793     Total SCF correction =     0.000445

     BFGS Geometry Optimization

     number of scf cycles    =   1
     number of bfgs steps    =   0

     energy   new            =     -25.1613957285 Ry

     new trust radius        =       0.0035133480 bohr

     The maximum number of steps has been reached.

     End of BFGS Geometry Optimization

ATOMIC_POSITIONS (crystal)
H            -0.0000007742       -0.0000007742       -0.0000931511
Si           -0.0000823106       -0.0000823106        0.0750534493
Si            0.3330823096        0.3330823096        0.1109500953
H             0.3330007751        0.3330007751        0.1860896065



     Writing output data file /home/jesus/Documentos/Nanociencia_DFT/silicano.save/
     NEW-OLD atomic charge density approx. for the potential

     negative rho (up, down):  1.019E-04 0.000E+00

     Writing output data file /home/jesus/Documentos/Nanociencia_DFT/silicano.save/
 
     init_run     :      1.88s CPU      2.07s WALL (       1 calls)
     electrons    :     18.84s CPU     20.20s WALL (       1 calls)
     update_pot   :      0.54s CPU      0.54s WALL (       1 calls)
     forces       :      0.88s CPU      0.96s WALL (       1 calls)

     Called by init_run:
     wfcinit      :      0.75s CPU      0.77s WALL (       1 calls)
     potinit      :      0.29s CPU      0.31s WALL (       1 calls)
     hinit0       :      0.55s CPU      0.59s WALL (       1 calls)

     Called by electrons:
     c_bands      :     13.30s CPU     13.34s WALL (       6 calls)
     sum_band     :      3.62s CPU      4.20s WALL (       6 calls)
     v_of_rho     :      0.79s CPU      0.83s WALL (       8 calls)
     newd         :      1.63s CPU      2.55s WALL (       8 calls)
     mix_rho      :      0.08s CPU      0.08s WALL (       6 calls)

     Called by c_bands:
     init_us_2    :      0.60s CPU      0.60s WALL (     294 calls)
     cegterg      :     10.93s CPU     10.97s WALL (     126 calls)

     Called by *egterg:
     cdiaghg      :      0.08s CPU      0.08s WALL (     585 calls)
     h_psi        :     10.05s CPU     10.10s WALL (     606 calls)
     s_psi        :      0.41s CPU      0.41s WALL (     606 calls)
     g_psi        :      0.04s CPU      0.05s WALL (     459 calls)

     Called by h_psi:
     h_psi:calbec :      0.47s CPU      0.47s WALL (     606 calls)
     vloc_psi     :      9.10s CPU      9.15s WALL (     606 calls)
     add_vuspsi   :      0.43s CPU      0.43s WALL (     606 calls)

     General routines
     calbec       :      0.68s CPU      0.68s WALL (     816 calls)
     fft          :      0.33s CPU      0.35s WALL (     114 calls)
     ffts         :      0.02s CPU      0.02s WALL (      14 calls)
     fftw         :      9.43s CPU      9.47s WALL (    8114 calls)
     interpolate  :      0.05s CPU      0.05s WALL (       8 calls)
     davcio       :      0.00s CPU      0.01s WALL (      21 calls)
 
     Parallel routines
 
     PWSCF        :     23.18s CPU     24.95s WALL

 
   This run was terminated on:  23:32:31   1Apr2021            

=------------------------------------------------------------------------------=
   JOB DONE.
=------------------------------------------------------------------------------=
