
     Program PWSCF v.6.6 starts on  1Apr2021 at 23:31:19 

     This program is part of the open-source Quantum ESPRESSO suite
     for quantum simulation of materials; please cite
         "P. Giannozzi et al., J. Phys.:Condens. Matter 21 395502 (2009);
         "P. Giannozzi et al., J. Phys.:Condens. Matter 29 465901 (2017);
          URL http://www.quantum-espresso.org", 
     in publications or presentations arising from this work. More details at
     http://www.quantum-espresso.org/quote

     Parallel version (MPI), running on     1 processors

     MPI processes distributed on     1 nodes
     Fft bands division:     nmany     =       1
     Waiting for input...
     Reading input from standard input
Warning: card &CELL ignored
Warning: card   CELL_DYNAMICS='BFGS', ignored
Warning: card   CELL_DOFREE='ALL', ignored
Warning: card / ignored

     Current dimensions of program PWSCF are:
     Max number of different atomic species (ntypx) = 10
     Max number of k-points (npk) =  40000
     Max angular momentum in pseudopotentials (lmaxx) =  3

     File /home/jesus/Documentos/Nanociencia_DFT/silicano.update deleted, as requested

     File /home/jesus/Documentos/Nanociencia_DFT/silicano.bfgs deleted, as requested

     Subspace diagonalization in iterative solution of the eigenvalue problem:
     a serial algorithm will be used

     Message from routine setup:
     using ibrav=0 with symmetry is DISCOURAGED, use correct ibrav instead
 
     G-vector sticks info
     --------------------
     sticks:   dense  smooth     PW     G-vecs:    dense   smooth      PW
     Sum         769     511    163                88829    48471    8725
 


     bravais-lattice index     =            0
     lattice parameter (alat)  =       7.2943  a.u.
     unit-cell volume          =    1728.9298 (a.u.)^3
     number of atoms/cell      =            4
     number of atomic types    =            2
     number of electrons       =        10.00
     number of Kohn-Sham states=            9
     kinetic-energy cutoff     =      35.0000  Ry
     charge density cutoff     =     210.0000  Ry
     convergence threshold     =      1.0E-06
     mixing beta               =       0.7000
     number of iterations used =            8  plain     mixing
     Exchange-correlation= PBE
                           (   1   4   3   4   0   0   0)
     nstep                     =            1


     celldm(1)=   7.294343  celldm(2)=   0.000000  celldm(3)=   0.000000
     celldm(4)=   0.000000  celldm(5)=   0.000000  celldm(6)=   0.000000

     crystal axes: (cart. coord. in units of alat)
               a(1) = (   0.500000   0.866000   0.000000 )  
               a(2) = (  -0.500000   0.866000   0.000000 )  
               a(3) = (   0.000000   0.000000   5.144000 )  

     reciprocal axes: (cart. coord. in units 2 pi/alat)
               b(1) = (  1.000000  0.577367  0.000000 )  
               b(2) = ( -1.000000  0.577367  0.000000 )  
               b(3) = (  0.000000  0.000000  0.194401 )  


     PseudoPot. # 1 for Si read from file:
     /home/jesus/Nanociencia_DFT/pseudopotenciales/Si.pbe-n-rrkjus_psl.1.0.0.UPF
     MD5 check sum: fa25574f73a70a4139f2adfbefec430c
     Pseudo is Ultrasoft + core correction, Zval =  4.0
     Generated using "atomic" code by A. Dal Corso v.6.3
     Using radial grid of 1141 points,  6 beta functions with: 
                l(1) =   0
                l(2) =   0
                l(3) =   1
                l(4) =   1
                l(5) =   2
                l(6) =   2
     Q(r) pseudized with 0 coefficients 


     PseudoPot. # 2 for H  read from file:
     /home/jesus/Nanociencia_DFT/pseudopotenciales/H.pbe-rrkjus_psl.1.0.0.UPF
     MD5 check sum: 3f4114867bd07edc7f1424d066fc1888
     Pseudo is Ultrasoft, Zval =  1.0
     Generated using "atomic" code by A. Dal Corso v.6.3MaX
     Using radial grid of  929 points,  2 beta functions with: 
                l(1) =   0
                l(2) =   0
     Q(r) pseudized with 0 coefficients 


     atomic species   valence    mass     pseudopotential
        Si             4.00    28.08550     Si( 1.00)
        H              1.00     1.00800     H ( 1.00)

      2 Sym. Ops. (no inversion) found



   Cartesian axes

     site n.     atom                  positions (alat units)
         1           H   tau(   1) = (   0.0000000   0.0000000   0.0000000  )
         2           Si  tau(   2) = (   0.0000000   0.0000000   0.3858000  )
         3           Si  tau(   3) = (   0.0000000   0.5767560   0.5709840  )
         4           H   tau(   4) = (   0.0000000   0.5767560   0.9567840  )

     number of k points=    21  Methfessel-Paxton smearing, width (Ry)=  0.0100
                       cart. coord. in units 2pi/alat
        k(    1) = (   0.0000000   0.0000000   0.0000000), wk =   0.0312500
        k(    2) = (  -0.1250000   0.0721709   0.0000000), wk =   0.1250000
        k(    3) = (  -0.2500000   0.1443418   0.0000000), wk =   0.1250000
        k(    4) = (  -0.3750000   0.2165127   0.0000000), wk =   0.1250000
        k(    5) = (   0.5000000  -0.2886836   0.0000000), wk =   0.0625000
        k(    6) = (   0.0000000   0.1443418   0.0000000), wk =   0.0625000
        k(    7) = (  -0.1250000   0.2165127   0.0000000), wk =   0.1250000
        k(    8) = (  -0.2500000   0.2886836   0.0000000), wk =   0.1250000
        k(    9) = (   0.6250000  -0.2165127   0.0000000), wk =   0.1250000
        k(   10) = (   0.5000000  -0.1443418   0.0000000), wk =   0.1250000
        k(   11) = (   0.3750000  -0.0721709   0.0000000), wk =   0.1250000
        k(   12) = (   0.2500000   0.0000000   0.0000000), wk =   0.0625000
        k(   13) = (   0.0000000   0.2886836   0.0000000), wk =   0.0625000
        k(   14) = (  -0.1250000   0.3608545   0.0000000), wk =   0.1250000
        k(   15) = (   0.7500000  -0.1443418   0.0000000), wk =   0.1250000
        k(   16) = (   0.6250000  -0.0721709   0.0000000), wk =   0.1250000
        k(   17) = (   0.5000000   0.0000000   0.0000000), wk =   0.0625000
        k(   18) = (   0.0000000   0.4330254   0.0000000), wk =   0.0625000
        k(   19) = (   0.8750000  -0.0721709   0.0000000), wk =   0.1250000
        k(   20) = (   0.7500000   0.0000000   0.0000000), wk =   0.0625000
        k(   21) = (   0.0000000  -0.5773672   0.0000000), wk =   0.0312500

     Dense  grid:    88829 G-vectors     FFT dimensions: (  36,  36, 180)

     Smooth grid:    48471 G-vectors     FFT dimensions: (  27,  27, 144)

     Estimated max dynamical RAM per process >     337.85 MB

     Initial potential from superposition of free atoms

     starting charge    9.99886, renormalised to   10.00000

     negative rho (up, down):  9.935E-05 0.000E+00
     Starting wfcs are   10 randomized atomic wfcs

     total cpu time spent up to now is        2.7 secs

     Self-consistent Calculation

     iteration #  1     ecut=    35.00 Ry     beta= 0.70
     Davidson diagonalization with overlap
     ethr =  1.00E-02,  avg # of iterations =  3.7

     negative rho (up, down):  8.132E-05 0.000E+00

     total cpu time spent up to now is        6.4 secs

     total energy              =     -25.14988939 Ry
     estimated scf accuracy    <       0.17040819 Ry

     iteration #  2     ecut=    35.00 Ry     beta= 0.70
     Davidson diagonalization with overlap
     ethr =  1.70E-03,  avg # of iterations =  1.5

     negative rho (up, down):  9.651E-05 0.000E+00

     total cpu time spent up to now is        9.1 secs

     total energy              =     -25.16009532 Ry
     estimated scf accuracy    <       0.00455985 Ry

     iteration #  3     ecut=    35.00 Ry     beta= 0.70
     Davidson diagonalization with overlap
     c_bands:  1 eigenvalues not converged
     ethr =  4.56E-05,  avg # of iterations =  8.7

     negative rho (up, down):  9.879E-05 0.000E+00

     total cpu time spent up to now is       13.5 secs

     total energy              =     -25.16085375 Ry
     estimated scf accuracy    <       0.00023386 Ry

     iteration #  4     ecut=    35.00 Ry     beta= 0.70
     Davidson diagonalization with overlap
     c_bands:  1 eigenvalues not converged
     ethr =  2.34E-06,  avg # of iterations =  6.6

     negative rho (up, down):  1.016E-04 0.000E+00

     total cpu time spent up to now is       17.2 secs

     total energy              =     -25.16089233 Ry
     estimated scf accuracy    <       0.00002265 Ry

     iteration #  5     ecut=    35.00 Ry     beta= 0.70
     Davidson diagonalization with overlap
     ethr =  2.26E-07,  avg # of iterations =  2.0

     negative rho (up, down):  1.016E-04 0.000E+00

     total cpu time spent up to now is       20.1 secs

     total energy              =     -25.16089519 Ry
     estimated scf accuracy    <       0.00000356 Ry

     iteration #  6     ecut=    35.00 Ry     beta= 0.70
     Davidson diagonalization with overlap
     ethr =  3.56E-08,  avg # of iterations =  1.3

     negative rho (up, down):  1.020E-04 0.000E+00

     total cpu time spent up to now is       22.8 secs

     End of self-consistent calculation

          k = 0.0000 0.0000 0.0000 (  6023 PWs)   bands (ev):

   -13.7595  -9.1578  -5.8578  -3.3312  -3.3157  -0.9297   0.6156   0.6322
     0.8601

          k =-0.1250 0.0722 0.0000 (  5990 PWs)   bands (ev):

   -13.5862  -9.1122  -5.8560  -4.4862  -3.6435  -0.3685   0.6609   1.1763
     1.2487

          k =-0.2500 0.1443 0.0000 (  6048 PWs)   bands (ev):

   -13.0801  -9.1123  -6.1281  -5.8136  -4.2045  -0.7419   1.1846   1.4484
     2.2200

          k =-0.3750 0.2165 0.0000 (  6074 PWs)   bands (ev):

   -12.3103  -9.6066  -6.8820  -5.9709  -4.6223  -1.0598   0.6941   1.4367
     3.1259

          k = 0.5000-0.2887 0.0000 (  6074 PWs)   bands (ev):

   -11.7198 -10.2188  -6.9583  -6.0764  -4.7706  -1.1350   0.3316   1.4140
     3.1300

          k = 0.0000 0.1443 0.0000 (  5990 PWs)   bands (ev):

   -13.5861  -9.1124  -5.8562  -4.4942  -3.6341  -0.3654   0.6645   1.1766
     1.2386

          k =-0.1250 0.2165 0.0000 (  6019 PWs)   bands (ev):

   -13.2455  -9.0830  -5.8811  -5.5741  -4.3205   0.2783   0.5219   1.3786
     1.6944

          k =-0.2500 0.2887 0.0000 (  6042 PWs)   bands (ev):

   -12.5964  -9.3175  -6.5590  -5.9720  -5.0304   0.0218   1.1839   1.3671
     2.1364

          k = 0.6250-0.2165 0.0000 (  6053 PWs)   bands (ev):

   -11.7920 -10.0464  -6.8711  -6.0864  -5.3940  -0.0690   0.5678   1.4292
     2.3578

          k = 0.5000-0.1443 0.0000 (  6053 PWs)   bands (ev):

   -11.7929 -10.0447  -6.8714  -6.0850  -5.3960  -0.0678   0.5667   1.4293
     2.3573

          k = 0.3750-0.0722 0.0000 (  6042 PWs)   bands (ev):

   -12.5973  -9.3156  -6.5571  -5.9701  -5.0361   0.0234   1.1859   1.3636
     2.1347

          k = 0.2500 0.0000 0.0000 (  6019 PWs)   bands (ev):

   -13.2460  -9.0823  -5.8804  -5.5664  -4.3307   0.2829   0.5128   1.3811
     1.6936

          k = 0.0000 0.2887 0.0000 (  6048 PWs)   bands (ev):

   -13.0793  -9.1136  -6.1330  -5.8147  -4.1977  -0.7356   1.1846   1.4473
     2.2189

          k =-0.1250 0.3609 0.0000 (  6042 PWs)   bands (ev):

   -12.5956  -9.3192  -6.5614  -5.9718  -5.0276   0.0280   1.1846   1.3647
     2.1354

          k = 0.7500-0.1443 0.0000 (  6051 PWs)   bands (ev):

   -11.8532  -9.8765  -6.5786  -6.3736  -5.8316   0.8012   1.1206   1.8905
     2.2472

          k = 0.6250-0.0722 0.0000 (  6067 PWs)   bands (ev):

   -11.2060 -10.4772  -6.7211  -6.2702  -6.2041   0.6550   1.4673   1.5365
     2.1769

          k = 0.5000 0.0000 0.0000 (  6051 PWs)   bands (ev):

   -11.8560  -9.8713  -6.5770  -6.3735  -5.8359   0.8024   1.1205   1.8869
     2.2389

          k = 0.0000 0.4330 0.0000 (  6074 PWs)   bands (ev):

   -12.3074  -9.6122  -6.8832  -5.9729  -4.6167  -1.0537   0.6953   1.4342
     3.1255

          k = 0.8750-0.0722 0.0000 (  6053 PWs)   bands (ev):

   -11.7875 -10.0537  -6.8710  -6.0882  -5.3899  -0.0628   0.5692   1.4261
     2.3581

          k = 0.7500 0.0000 0.0000 (  6067 PWs)   bands (ev):

   -11.1990 -10.4861  -6.7212  -6.2663  -6.2062   0.6559   1.4660   1.5374
     2.1819

          k = 0.0000-0.5774 0.0000 (  6074 PWs)   bands (ev):

   -11.7125 -10.2298  -6.9572  -6.0796  -4.7654  -1.1291   0.3337   1.4103
     3.1305

     the Fermi energy is    -3.2081 ev

!    total energy              =     -25.16089569 Ry
     estimated scf accuracy    <       0.00000040 Ry
     smearing contrib. (-TS)   =       0.00001849 Ry
     internal energy E=F+TS    =     -25.16091419 Ry

     The total energy is F=E-TS. E is the sum of the following terms:
     one-electron contribution =    -111.47211981 Ry
     hartree contribution      =      57.07257636 Ry
     xc contribution           =     -13.67592325 Ry
     ewald contribution        =      42.91455251 Ry

     convergence has been achieved in   6 iterations

     negative rho (up, down):  1.020E-04 0.000E+00

     Forces acting on atoms (cartesian axes, Ry/au):

     atom    1 type  2   force =     0.00000000   -0.00001047   -0.00872986
     atom    2 type  1   force =     0.00000000   -0.00108470    0.00300656
     atom    3 type  1   force =     0.00000000    0.00108320   -0.00280288
     atom    4 type  2   force =     0.00000000    0.00001197    0.00852619

     Total force =     0.012967     Total SCF correction =     0.000578

     BFGS Geometry Optimization

     number of scf cycles    =   1
     number of bfgs steps    =   0

     energy   new            =     -25.1608956948 Ry

     new trust radius        =       0.0087298680 bohr

     The maximum number of steps has been reached.

     End of BFGS Geometry Optimization

ATOMIC_POSITIONS (crystal)
H            -0.0000008286       -0.0000008286       -0.0002326592
Si           -0.0000858570       -0.0000858570        0.0750801276
Si            0.3330857381        0.3330857381        0.1109253005
H             0.3330009475        0.3330009475        0.1862272311



     Writing output data file /home/jesus/Documentos/Nanociencia_DFT/silicano.save/
     NEW-OLD atomic charge density approx. for the potential

     negative rho (up, down):  1.017E-04 0.000E+00

     Writing output data file /home/jesus/Documentos/Nanociencia_DFT/silicano.save/
 
     init_run     :      1.82s CPU      1.96s WALL (       1 calls)
     electrons    :     18.75s CPU     20.04s WALL (       1 calls)
     update_pot   :      0.53s CPU      0.53s WALL (       1 calls)
     forces       :      0.83s CPU      0.95s WALL (       1 calls)

     Called by init_run:
     wfcinit      :      0.76s CPU      0.77s WALL (       1 calls)
     potinit      :      0.29s CPU      0.30s WALL (       1 calls)
     hinit0       :      0.49s CPU      0.51s WALL (       1 calls)

     Called by electrons:
     c_bands      :     13.24s CPU     13.26s WALL (       6 calls)
     sum_band     :      3.53s CPU      4.14s WALL (       6 calls)
     v_of_rho     :      0.82s CPU      0.85s WALL (       8 calls)
     newd         :      1.67s CPU      2.49s WALL (       8 calls)
     mix_rho      :      0.08s CPU      0.08s WALL (       6 calls)

     Called by c_bands:
     init_us_2    :      0.60s CPU      0.61s WALL (     294 calls)
     cegterg      :     10.90s CPU     10.92s WALL (     126 calls)

     Called by *egterg:
     cdiaghg      :      0.09s CPU      0.09s WALL (     626 calls)
     h_psi        :     10.02s CPU     10.04s WALL (     647 calls)
     s_psi        :      0.41s CPU      0.42s WALL (     647 calls)
     g_psi        :      0.04s CPU      0.04s WALL (     500 calls)

     Called by h_psi:
     h_psi:calbec :      0.47s CPU      0.47s WALL (     647 calls)
     vloc_psi     :      9.06s CPU      9.08s WALL (     647 calls)
     add_vuspsi   :      0.44s CPU      0.44s WALL (     647 calls)

     General routines
     calbec       :      0.68s CPU      0.68s WALL (     857 calls)
     fft          :      0.34s CPU      0.36s WALL (     114 calls)
     ffts         :      0.02s CPU      0.02s WALL (      14 calls)
     fftw         :      9.39s CPU      9.41s WALL (    8204 calls)
     interpolate  :      0.05s CPU      0.05s WALL (       8 calls)
     davcio       :      0.00s CPU      0.01s WALL (      21 calls)
 
     Parallel routines
 
     PWSCF        :     22.92s CPU     24.64s WALL

 
   This run was terminated on:  23:31:44   1Apr2021            

=------------------------------------------------------------------------------=
   JOB DONE.
=------------------------------------------------------------------------------=
