
     Program PWSCF v.6.6 starts on 31Mar2021 at 17:15:53 

     This program is part of the open-source Quantum ESPRESSO suite
     for quantum simulation of materials; please cite
         "P. Giannozzi et al., J. Phys.:Condens. Matter 21 395502 (2009);
         "P. Giannozzi et al., J. Phys.:Condens. Matter 29 465901 (2017);
          URL http://www.quantum-espresso.org", 
     in publications or presentations arising from this work. More details at
     http://www.quantum-espresso.org/quote

     Parallel version (MPI), running on     1 processors

     MPI processes distributed on     1 nodes
     Fft bands division:     nmany     =       1
     Waiting for input...
     Reading input from standard input
Warning: card &CELL ignored
Warning: card   CELL_DYNAMICS='BFGS', ignored
Warning: card   CELL_DOFREE='ALL', ignored
Warning: card / ignored

     Current dimensions of program PWSCF are:
     Max number of different atomic species (ntypx) = 10
     Max number of k-points (npk) =  40000
     Max angular momentum in pseudopotentials (lmaxx) =  3

     File /home/jesus/Documentos/Nanociencia_DFT/silicano.update deleted, as requested

     File /home/jesus/Documentos/Nanociencia_DFT/silicano.bfgs deleted, as requested
     file H.pbe-kjpaw_psl.1.0.0.UPF: wavefunction(s)  1S renormalized

     Subspace diagonalization in iterative solution of the eigenvalue problem:
     a serial algorithm will be used

     Message from routine setup:
     using ibrav=0 with symmetry is DISCOURAGED, use correct ibrav instead
 
     G-vector sticks info
     --------------------
     sticks:   dense  smooth     PW     G-vecs:    dense   smooth      PW
     Sum        1189     793    241               170783    92923   15601
 


     bravais-lattice index     =            0
     lattice parameter (alat)  =       9.0707  a.u.
     unit-cell volume          =    3324.5982 (a.u.)^3
     number of atoms/cell      =            4
     number of atomic types    =            2
     number of electrons       =        10.00
     number of Kohn-Sham states=            9
     kinetic-energy cutoff     =      35.0000  Ry
     charge density cutoff     =     210.0000  Ry
     convergence threshold     =      1.0E-06
     mixing beta               =       0.7000
     number of iterations used =            8  plain     mixing
     Exchange-correlation= SLA PW PBX PBC
                           (   1   4   3   4   0   0   0)
     nstep                     =            1


     celldm(1)=   9.070685  celldm(2)=   0.000000  celldm(3)=   0.000000
     celldm(4)=   0.000000  celldm(5)=   0.000000  celldm(6)=   0.000000

     crystal axes: (cart. coord. in units of alat)
               a(1) = (   0.500000   0.866000   0.000000 )  
               a(2) = (  -0.500000   0.866000   0.000000 )  
               a(3) = (   0.000000   0.000000   5.144000 )  

     reciprocal axes: (cart. coord. in units 2 pi/alat)
               b(1) = (  1.000000  0.577367  0.000000 )  
               b(2) = ( -1.000000  0.577367  0.000000 )  
               b(3) = (  0.000000  0.000000  0.194401 )  


     PseudoPot. # 1 for Si read from file:
     /home/jesus/Nanociencia_DFT/pseudopotenciales/Si.pbe-n-rrkjus_psl.1.0.0.UPF
     MD5 check sum: fa25574f73a70a4139f2adfbefec430c
     Pseudo is Ultrasoft + core correction, Zval =  4.0
     Generated using "atomic" code by A. Dal Corso v.6.3
     Using radial grid of 1141 points,  6 beta functions with: 
                l(1) =   0
                l(2) =   0
                l(3) =   1
                l(4) =   1
                l(5) =   2
                l(6) =   2
     Q(r) pseudized with 0 coefficients 


     PseudoPot. # 2 for H  read from file:
     /home/jesus/Nanociencia_DFT/pseudopotenciales/H.pbe-kjpaw_psl.1.0.0.UPF
     MD5 check sum: d81a744832360e4a8af0b0b5b123bc2a
     Pseudo is Projector augmented-wave, Zval =  1.0
     Generated using "atomic" code by A. Dal Corso v.6.3MaX
     Shape of augmentation charge: PSQ
     Using radial grid of  929 points,  2 beta functions with: 
                l(1) =   0
                l(2) =   0
     Q(r) pseudized with 0 coefficients 


     atomic species   valence    mass     pseudopotential
        Si             4.00    28.08550     Si( 1.00)
        H              1.00     1.00800     H ( 1.00)

      2 Sym. Ops. (no inversion) found



   Cartesian axes

     site n.     atom                  positions (alat units)
         1           H   tau(   1) = (   0.0000000   0.0000000   0.0000000  )
         2           Si  tau(   2) = (   0.0000000   0.0000000   0.3858000  )
         3           Si  tau(   3) = (   0.0000000   0.5767560   0.5709840  )
         4           H   tau(   4) = (   0.0000000   0.5767560   0.9567840  )

     number of k points=    21  Methfessel-Paxton smearing, width (Ry)=  0.0100
                       cart. coord. in units 2pi/alat
        k(    1) = (   0.0000000   0.0000000   0.0000000), wk =   0.0312500
        k(    2) = (  -0.1250000   0.0721709   0.0000000), wk =   0.1250000
        k(    3) = (  -0.2500000   0.1443418   0.0000000), wk =   0.1250000
        k(    4) = (  -0.3750000   0.2165127   0.0000000), wk =   0.1250000
        k(    5) = (   0.5000000  -0.2886836   0.0000000), wk =   0.0625000
        k(    6) = (   0.0000000   0.1443418   0.0000000), wk =   0.0625000
        k(    7) = (  -0.1250000   0.2165127   0.0000000), wk =   0.1250000
        k(    8) = (  -0.2500000   0.2886836   0.0000000), wk =   0.1250000
        k(    9) = (   0.6250000  -0.2165127   0.0000000), wk =   0.1250000
        k(   10) = (   0.5000000  -0.1443418   0.0000000), wk =   0.1250000
        k(   11) = (   0.3750000  -0.0721709   0.0000000), wk =   0.1250000
        k(   12) = (   0.2500000   0.0000000   0.0000000), wk =   0.0625000
        k(   13) = (   0.0000000   0.2886836   0.0000000), wk =   0.0625000
        k(   14) = (  -0.1250000   0.3608545   0.0000000), wk =   0.1250000
        k(   15) = (   0.7500000  -0.1443418   0.0000000), wk =   0.1250000
        k(   16) = (   0.6250000  -0.0721709   0.0000000), wk =   0.1250000
        k(   17) = (   0.5000000   0.0000000   0.0000000), wk =   0.0625000
        k(   18) = (   0.0000000   0.4330254   0.0000000), wk =   0.0625000
        k(   19) = (   0.8750000  -0.0721709   0.0000000), wk =   0.1250000
        k(   20) = (   0.7500000   0.0000000   0.0000000), wk =   0.0625000
        k(   21) = (   0.0000000  -0.5773672   0.0000000), wk =   0.0312500

     Dense  grid:   170783 G-vectors     FFT dimensions: (  45,  45, 216)

     Smooth grid:    92923 G-vectors     FFT dimensions: (  36,  36, 180)

     Estimated max dynamical RAM per process >     646.65 MB

     Initial potential from superposition of free atoms

     starting charge    9.99886, renormalised to   10.00000

     negative rho (up, down):  1.564E-04 0.000E+00
     Starting wfcs are   10 randomized atomic wfcs
     Checking if some PAW data can be deallocated... 

     total cpu time spent up to now is        5.6 secs

     Self-consistent Calculation

     iteration #  1     ecut=    35.00 Ry     beta= 0.70
     Davidson diagonalization with overlap
     ethr =  1.00E-02,  avg # of iterations =  2.5

     negative rho (up, down):  7.897E-05 0.000E+00

     total cpu time spent up to now is       15.0 secs

     total energy              =     -24.88945041 Ry
     estimated scf accuracy    <       0.10686325 Ry

     iteration #  2     ecut=    35.00 Ry     beta= 0.70
     Davidson diagonalization with overlap
     ethr =  1.07E-03,  avg # of iterations =  2.0

     negative rho (up, down):  1.105E-04 0.000E+00

     total cpu time spent up to now is       23.4 secs

     total energy              =     -24.90818328 Ry
     estimated scf accuracy    <       0.03697977 Ry

     iteration #  3     ecut=    35.00 Ry     beta= 0.70
     Davidson diagonalization with overlap
     ethr =  3.70E-04,  avg # of iterations =  1.6

     negative rho (up, down):  1.273E-04 0.000E+00

     total cpu time spent up to now is       31.3 secs

     total energy              =     -24.91615347 Ry
     estimated scf accuracy    <       0.00163816 Ry

     iteration #  4     ecut=    35.00 Ry     beta= 0.70
     Davidson diagonalization with overlap
     ethr =  1.64E-05,  avg # of iterations =  5.6

     negative rho (up, down):  1.256E-04 0.000E+00

     total cpu time spent up to now is       42.4 secs

     total energy              =     -24.91643324 Ry
     estimated scf accuracy    <       0.00034451 Ry

     iteration #  5     ecut=    35.00 Ry     beta= 0.70
     Davidson diagonalization with overlap
     ethr =  3.45E-06,  avg # of iterations =  2.5

     negative rho (up, down):  1.282E-04 0.000E+00

     total cpu time spent up to now is       51.1 secs

     total energy              =     -24.91650877 Ry
     estimated scf accuracy    <       0.00000358 Ry

     iteration #  6     ecut=    35.00 Ry     beta= 0.70
     Davidson diagonalization with overlap
     ethr =  3.58E-08,  avg # of iterations =  4.4

     negative rho (up, down):  1.287E-04 0.000E+00

     total cpu time spent up to now is       60.8 secs

     total energy              =     -24.91651158 Ry
     estimated scf accuracy    <       0.00001265 Ry

     iteration #  7     ecut=    35.00 Ry     beta= 0.70
     Davidson diagonalization with overlap
     ethr =  3.58E-08,  avg # of iterations =  1.6

     negative rho (up, down):  1.293E-04 0.000E+00

     total cpu time spent up to now is       68.8 secs

     End of self-consistent calculation

          k = 0.0000 0.0000 0.0000 ( 11685 PWs)   bands (ev):

   -12.4093  -9.2273  -6.2767  -4.7589  -4.5362  -4.5251  -1.5287  -1.5143
    -1.2050

          k =-0.1250 0.0722 0.0000 ( 11665 PWs)   bands (ev):

   -12.3160  -9.3107  -6.2836  -5.6167  -4.6776  -3.6528  -1.5815  -1.2371
    -1.1324

          k =-0.2500 0.1443 0.0000 ( 11645 PWs)   bands (ev):

   -12.0475  -9.5940  -6.3362  -6.2607  -4.9595  -3.1756  -1.4236  -0.8551
    -0.6249

          k =-0.3750 0.2165 0.0000 ( 11627 PWs)   bands (ev):

   -11.6568 -10.0541  -6.5973  -6.3530  -5.1848  -3.1801  -1.2619  -0.6617
    -0.1070

          k = 0.5000-0.2887 0.0000 ( 11590 PWs)   bands (ev):

   -11.3897 -10.3638  -6.6612  -6.3859  -5.2671  -3.2160  -1.2352  -0.6931
     0.0671

          k = 0.0000 0.1443 0.0000 ( 11663 PWs)   bands (ev):

   -12.3158  -9.3112  -6.2838  -5.6206  -4.6705  -3.6552  -1.5729  -1.2465
    -1.1320

          k =-0.1250 0.2165 0.0000 ( 11669 PWs)   bands (ev):

   -12.1340  -9.4966  -6.3032  -6.1242  -4.9771  -3.0404  -1.6258  -1.0841
    -0.6407

          k =-0.2500 0.2887 0.0000 ( 11631 PWs)   bands (ev):

   -11.7955  -9.8829  -6.4818  -6.3445  -5.3439  -2.6921  -1.4123  -0.8407
    -0.2112

          k = 0.6250-0.2165 0.0000 ( 11602 PWs)   bands (ev):

   -11.4025 -10.3364  -6.6115  -6.3908  -5.5491  -2.6924  -1.2468  -0.6206
    -0.1771

          k = 0.5000-0.1443 0.0000 ( 11602 PWs)   bands (ev):

   -11.4033 -10.3352  -6.6114  -6.3903  -5.5504  -2.6916  -1.2477  -0.6181
    -0.1801

          k = 0.3750-0.0722 0.0000 ( 11631 PWs)   bands (ev):

   -11.7964  -9.8810  -6.4805  -6.3436  -5.3481  -2.6892  -1.4173  -0.8383
    -0.2145

          k = 0.2500 0.0000 0.0000 ( 11667 PWs)   bands (ev):

   -12.1346  -9.4952  -6.3029  -6.1203  -4.9842  -3.0371  -1.6351  -1.0815
    -0.6362

          k = 0.0000 0.2887 0.0000 ( 11645 PWs)   bands (ev):

   -12.0466  -9.5961  -6.3385  -6.2621  -4.9542  -3.1728  -1.4205  -0.8532
    -0.6315

          k =-0.1250 0.3609 0.0000 ( 11631 PWs)   bands (ev):

   -11.7945  -9.8847  -6.4837  -6.3443  -5.3418  -2.6883  -1.4124  -0.8402
    -0.2142

          k = 0.7500-0.1443 0.0000 ( 11625 PWs)   bands (ev):

   -11.4136 -10.3110  -6.5290  -6.4138  -5.7920  -2.0041  -1.4037  -0.6845
    -0.1247

          k = 0.6250-0.0722 0.0000 ( 11572 PWs)   bands (ev):

   -11.0942 -10.6509  -6.5301  -6.4367  -5.9698  -1.8360  -1.3180  -0.4403
    -0.2806

          k = 0.5000 0.0000 0.0000 ( 11625 PWs)   bands (ev):

   -11.4163 -10.3069  -6.5275  -6.4127  -5.7963  -2.0013  -1.4094  -0.6801
    -0.1304

          k = 0.0000 0.4330 0.0000 ( 11629 PWs)   bands (ev):

   -11.6539 -10.0591  -6.5996  -6.3536  -5.1805  -3.1750  -1.2609  -0.6595
    -0.1110

          k = 0.8750-0.0722 0.0000 ( 11602 PWs)   bands (ev):

   -11.3984 -10.3422  -6.6132  -6.3913  -5.5457  -2.6881  -1.2461  -0.6173
    -0.1810

          k = 0.7500 0.0000 0.0000 ( 11576 PWs)   bands (ev):

   -11.0886 -10.6574  -6.5314  -6.4370  -5.9673  -1.8355  -1.3162  -0.4420
    -0.2778

          k = 0.0000-0.5774 0.0000 ( 11590 PWs)   bands (ev):

   -11.3838 -10.3722  -6.6626  -6.3868  -5.2631  -3.2105  -1.2344  -0.6913
     0.0642

     the Fermi energy is    -4.5432 ev

!    total energy              =     -24.91651276 Ry
     estimated scf accuracy    <       0.00000080 Ry
     smearing contrib. (-TS)   =       0.00002038 Ry
     internal energy E=F+TS    =     -24.91653313 Ry

     The total energy is F=E-TS. E is the sum of the following terms:
     one-electron contribution =     -94.62587678 Ry
     hartree contribution      =      48.15737201 Ry
     xc contribution           =     -12.95819732 Ry
     ewald contribution        =      34.51045264 Ry
     one-center paw contrib.   =      -0.00028368 Ry

     convergence has been achieved in   7 iterations

     negative rho (up, down):  1.293E-04 0.000E+00

     Forces acting on atoms (cartesian axes, Ry/au):

     atom    1 type  2   force =     0.00000000    0.00002408    0.10007047
     atom    2 type  1   force =     0.00000000   -0.00000457   -0.03613054
     atom    3 type  1   force =     0.00000000    0.00000147    0.03606863
     atom    4 type  2   force =     0.00000000   -0.00002098   -0.10000855

     Total force =     0.150407     Total SCF correction =     0.000526

     BFGS Geometry Optimization

     number of scf cycles    =   1
     number of bfgs steps    =   0

     energy   new            =     -24.9165127555 Ry

     new trust radius        =       0.1000704707 bohr

     The maximum number of steps has been reached.

     End of BFGS Geometry Optimization

ATOMIC_POSITIONS (crystal)
H             0.0000015327        0.0000015327        0.0021446917
Si           -0.0000002911       -0.0000002911        0.0742256569
Si            0.3330000936        0.3330000936        0.1117730161
H             0.3329986648        0.3329986648        0.1838566353



     Writing output data file /home/jesus/Documentos/Nanociencia_DFT/silicano.save/
     NEW-OLD atomic charge density approx. for the potential

     negative rho (up, down):  1.336E-04 0.000E+00

     Writing output data file /home/jesus/Documentos/Nanociencia_DFT/silicano.save/
 
     init_run     :      4.35s CPU      4.71s WALL (       1 calls)
     electrons    :     59.47s CPU     63.24s WALL (       1 calls)
     update_pot   :      1.10s CPU      1.12s WALL (       1 calls)
     forces       :      1.89s CPU      2.23s WALL (       1 calls)

     Called by init_run:
     wfcinit      :      2.33s CPU      2.33s WALL (       1 calls)
     potinit      :      0.64s CPU      0.68s WALL (       1 calls)
     hinit0       :      0.76s CPU      0.79s WALL (       1 calls)

     Called by electrons:
     c_bands      :     41.64s CPU     41.79s WALL (       7 calls)
     sum_band     :     12.34s CPU     14.05s WALL (       7 calls)
     v_of_rho     :      1.89s CPU      2.04s WALL (       9 calls)
     newd         :      4.66s CPU      6.98s WALL (       9 calls)
     PAW_pot      :      0.01s CPU      0.01s WALL (      10 calls)
     mix_rho      :      0.23s CPU      0.24s WALL (       7 calls)

     Called by c_bands:
     init_us_2    :      1.64s CPU      1.66s WALL (     357 calls)
     cegterg      :     35.64s CPU     35.77s WALL (     147 calls)

     Called by *egterg:
     cdiaghg      :      0.09s CPU      0.09s WALL (     568 calls)
     h_psi        :     34.06s CPU     34.17s WALL (     589 calls)
     s_psi        :      1.04s CPU      1.04s WALL (     589 calls)
     g_psi        :      0.11s CPU      0.11s WALL (     421 calls)

     Called by h_psi:
     h_psi:calbec :      1.06s CPU      1.06s WALL (     589 calls)
     vloc_psi     :     31.76s CPU     31.88s WALL (     589 calls)
     add_vuspsi   :      1.06s CPU      1.06s WALL (     589 calls)

     General routines
     calbec       :      1.60s CPU      1.61s WALL (     841 calls)
     fft          :      0.92s CPU      0.95s WALL (     127 calls)
     ffts         :      0.06s CPU      0.06s WALL (      16 calls)
     fftw         :     30.61s CPU     30.73s WALL (    8729 calls)
     interpolate  :      0.14s CPU      0.14s WALL (       9 calls)
     davcio       :      0.01s CPU      0.02s WALL (      21 calls)
 
     Parallel routines
 
     PWSCF        :   1m 8.45s CPU   1m13.25s WALL

 
   This run was terminated on:  17:17: 7  31Mar2021            

=------------------------------------------------------------------------------=
   JOB DONE.
=------------------------------------------------------------------------------=
