
     Program PWSCF v.6.6 starts on  1Apr2021 at 22:59:27 

     This program is part of the open-source Quantum ESPRESSO suite
     for quantum simulation of materials; please cite
         "P. Giannozzi et al., J. Phys.:Condens. Matter 21 395502 (2009);
         "P. Giannozzi et al., J. Phys.:Condens. Matter 29 465901 (2017);
          URL http://www.quantum-espresso.org", 
     in publications or presentations arising from this work. More details at
     http://www.quantum-espresso.org/quote

     Parallel version (MPI), running on     1 processors

     MPI processes distributed on     1 nodes
     Fft bands division:     nmany     =       1
     Waiting for input...
     Reading input from standard input
Warning: card &CELL ignored
Warning: card   CELL_DYNAMICS='BFGS', ignored
Warning: card   CELL_DOFREE='ALL', ignored
Warning: card / ignored

     Current dimensions of program PWSCF are:
     Max number of different atomic species (ntypx) = 10
     Max number of k-points (npk) =  40000
     Max angular momentum in pseudopotentials (lmaxx) =  3

     File /home/jesus/Documentos/Nanociencia_DFT/silicano.update deleted, as requested

     File /home/jesus/Documentos/Nanociencia_DFT/silicano.bfgs deleted, as requested

     Subspace diagonalization in iterative solution of the eigenvalue problem:
     a serial algorithm will be used

     Message from routine setup:
     using ibrav=0 with symmetry is DISCOURAGED, use correct ibrav instead
 
     G-vector sticks info
     --------------------
     sticks:   dense  smooth     PW     G-vecs:    dense   smooth      PW
     Sum         703     475    151                78143    42613    7787
 


     bravais-lattice index     =            0
     lattice parameter (alat)  =       6.9920  a.u.
     unit-cell volume          =    1522.7220 (a.u.)^3
     number of atoms/cell      =            4
     number of atomic types    =            2
     number of electrons       =        10.00
     number of Kohn-Sham states=            9
     kinetic-energy cutoff     =      35.0000  Ry
     charge density cutoff     =     210.0000  Ry
     convergence threshold     =      1.0E-06
     mixing beta               =       0.7000
     number of iterations used =            8  plain     mixing
     Exchange-correlation= PBE
                           (   1   4   3   4   0   0   0)
     nstep                     =            1


     celldm(1)=   6.991987  celldm(2)=   0.000000  celldm(3)=   0.000000
     celldm(4)=   0.000000  celldm(5)=   0.000000  celldm(6)=   0.000000

     crystal axes: (cart. coord. in units of alat)
               a(1) = (   0.500000   0.866000   0.000000 )  
               a(2) = (  -0.500000   0.866000   0.000000 )  
               a(3) = (   0.000000   0.000000   5.144000 )  

     reciprocal axes: (cart. coord. in units 2 pi/alat)
               b(1) = (  1.000000  0.577367  0.000000 )  
               b(2) = ( -1.000000  0.577367  0.000000 )  
               b(3) = (  0.000000  0.000000  0.194401 )  


     PseudoPot. # 1 for Si read from file:
     /home/jesus/Nanociencia_DFT/pseudopotenciales/Si.pbe-n-rrkjus_psl.1.0.0.UPF
     MD5 check sum: fa25574f73a70a4139f2adfbefec430c
     Pseudo is Ultrasoft + core correction, Zval =  4.0
     Generated using "atomic" code by A. Dal Corso v.6.3
     Using radial grid of 1141 points,  6 beta functions with: 
                l(1) =   0
                l(2) =   0
                l(3) =   1
                l(4) =   1
                l(5) =   2
                l(6) =   2
     Q(r) pseudized with 0 coefficients 


     PseudoPot. # 2 for H  read from file:
     /home/jesus/Nanociencia_DFT/pseudopotenciales/H.pbe-rrkjus_psl.1.0.0.UPF
     MD5 check sum: 3f4114867bd07edc7f1424d066fc1888
     Pseudo is Ultrasoft, Zval =  1.0
     Generated using "atomic" code by A. Dal Corso v.6.3MaX
     Using radial grid of  929 points,  2 beta functions with: 
                l(1) =   0
                l(2) =   0
     Q(r) pseudized with 0 coefficients 


     atomic species   valence    mass     pseudopotential
        Si             4.00    28.08550     Si( 1.00)
        H              1.00     1.00800     H ( 1.00)

      2 Sym. Ops. (no inversion) found



   Cartesian axes

     site n.     atom                  positions (alat units)
         1           H   tau(   1) = (   0.0000000   0.0000000   0.0000000  )
         2           Si  tau(   2) = (   0.0000000   0.0000000   0.3858000  )
         3           Si  tau(   3) = (   0.0000000   0.5767560   0.5709840  )
         4           H   tau(   4) = (   0.0000000   0.5767560   0.9567840  )

     number of k points=    21  Methfessel-Paxton smearing, width (Ry)=  0.0100
                       cart. coord. in units 2pi/alat
        k(    1) = (   0.0000000   0.0000000   0.0000000), wk =   0.0312500
        k(    2) = (  -0.1250000   0.0721709   0.0000000), wk =   0.1250000
        k(    3) = (  -0.2500000   0.1443418   0.0000000), wk =   0.1250000
        k(    4) = (  -0.3750000   0.2165127   0.0000000), wk =   0.1250000
        k(    5) = (   0.5000000  -0.2886836   0.0000000), wk =   0.0625000
        k(    6) = (   0.0000000   0.1443418   0.0000000), wk =   0.0625000
        k(    7) = (  -0.1250000   0.2165127   0.0000000), wk =   0.1250000
        k(    8) = (  -0.2500000   0.2886836   0.0000000), wk =   0.1250000
        k(    9) = (   0.6250000  -0.2165127   0.0000000), wk =   0.1250000
        k(   10) = (   0.5000000  -0.1443418   0.0000000), wk =   0.1250000
        k(   11) = (   0.3750000  -0.0721709   0.0000000), wk =   0.1250000
        k(   12) = (   0.2500000   0.0000000   0.0000000), wk =   0.0625000
        k(   13) = (   0.0000000   0.2886836   0.0000000), wk =   0.0625000
        k(   14) = (  -0.1250000   0.3608545   0.0000000), wk =   0.1250000
        k(   15) = (   0.7500000  -0.1443418   0.0000000), wk =   0.1250000
        k(   16) = (   0.6250000  -0.0721709   0.0000000), wk =   0.1250000
        k(   17) = (   0.5000000   0.0000000   0.0000000), wk =   0.0625000
        k(   18) = (   0.0000000   0.4330254   0.0000000), wk =   0.0625000
        k(   19) = (   0.8750000  -0.0721709   0.0000000), wk =   0.1250000
        k(   20) = (   0.7500000   0.0000000   0.0000000), wk =   0.0625000
        k(   21) = (   0.0000000  -0.5773672   0.0000000), wk =   0.0312500

     Dense  grid:    78143 G-vectors     FFT dimensions: (  36,  36, 180)

     Smooth grid:    42613 G-vectors     FFT dimensions: (  27,  27, 135)

     Estimated max dynamical RAM per process >     299.44 MB

     Initial potential from superposition of free atoms

     starting charge    9.99886, renormalised to   10.00000

     negative rho (up, down):  8.562E-05 0.000E+00
     Starting wfcs are   10 randomized atomic wfcs

     total cpu time spent up to now is        2.8 secs

     Self-consistent Calculation

     iteration #  1     ecut=    35.00 Ry     beta= 0.70
     Davidson diagonalization with overlap
     ethr =  1.00E-02,  avg # of iterations =  4.2

     negative rho (up, down):  6.890E-05 0.000E+00

     total cpu time spent up to now is        7.8 secs

     total energy              =     -25.12348774 Ry
     estimated scf accuracy    <       0.20196366 Ry

     iteration #  2     ecut=    35.00 Ry     beta= 0.70
     Davidson diagonalization with overlap
     ethr =  2.02E-03,  avg # of iterations =  1.8

     negative rho (up, down):  8.691E-05 0.000E+00

     total cpu time spent up to now is       11.0 secs

     total energy              =     -25.13652001 Ry
     estimated scf accuracy    <       0.00436719 Ry

     iteration #  3     ecut=    35.00 Ry     beta= 0.70
     Davidson diagonalization with overlap
     ethr =  4.37E-05,  avg # of iterations =  9.2

     negative rho (up, down):  9.234E-05 0.000E+00

     total cpu time spent up to now is       17.6 secs

     total energy              =     -25.13730704 Ry
     estimated scf accuracy    <       0.00017140 Ry

     iteration #  4     ecut=    35.00 Ry     beta= 0.70
     Davidson diagonalization with overlap
     c_bands:  1 eigenvalues not converged
     ethr =  1.71E-06,  avg # of iterations =  6.4

     negative rho (up, down):  9.290E-05 0.000E+00

     total cpu time spent up to now is       21.5 secs

     total energy              =     -25.13733191 Ry
     estimated scf accuracy    <       0.00002249 Ry

     iteration #  5     ecut=    35.00 Ry     beta= 0.70
     Davidson diagonalization with overlap
     ethr =  2.25E-07,  avg # of iterations =  1.6

     negative rho (up, down):  9.319E-05 0.000E+00

     total cpu time spent up to now is       24.4 secs

     total energy              =     -25.13733484 Ry
     estimated scf accuracy    <       0.00000450 Ry

     iteration #  6     ecut=    35.00 Ry     beta= 0.70
     Davidson diagonalization with overlap
     ethr =  4.50E-08,  avg # of iterations =  1.1

     negative rho (up, down):  9.383E-05 0.000E+00

     total cpu time spent up to now is       27.6 secs

     End of self-consistent calculation

          k = 0.0000 0.0000 0.0000 (  5383 PWs)   bands (ev):

   -14.1085  -9.2547  -5.7301  -2.9529  -2.9366  -0.2855   1.0887   1.1056
     1.2483

          k =-0.1250 0.0722 0.0000 (  5369 PWs)   bands (ev):

   -13.9156  -9.1790  -5.7221  -4.1876  -3.3158   0.1341   1.0835   1.6098
     1.8134

          k =-0.2500 0.1443 0.0000 (  5333 PWs)   bands (ev):

   -13.3508  -9.0869  -6.0481  -5.6545  -3.9504  -0.3499   1.5927   1.8281
     2.5542

          k =-0.3750 0.2165 0.0000 (  5310 PWs)   bands (ev):

   -12.4832  -9.5394  -6.9391  -5.8302  -4.4155  -0.7121   0.9483   1.9528
     3.7815

          k = 0.5000-0.2887 0.0000 (  5306 PWs)   bands (ev):

   -11.7958 -10.2424  -7.0008  -5.9599  -4.5796  -0.8010   0.5640   1.9051
     3.7244

          k = 0.0000 0.1443 0.0000 (  5369 PWs)   bands (ev):

   -13.9155  -9.1791  -5.7224  -4.1960  -3.3061   0.1382   1.0860   1.6098
     1.8038

          k =-0.1250 0.2165 0.0000 (  5357 PWs)   bands (ev):

   -13.5358  -9.0871  -5.7426  -5.3888  -4.1054   0.7523   0.9962   1.8506
     1.9931

          k =-0.2500 0.2887 0.0000 (  5324 PWs)   bands (ev):

   -12.8088  -9.2297  -6.5564  -5.8408  -4.8977   0.4533   1.5326   1.8215
     2.5924

          k = 0.6250-0.2165 0.0000 (  5313 PWs)   bands (ev):

   -11.8922 -10.0119  -6.9166  -5.9707  -5.3015   0.3461   0.8296   1.9323
     2.8596

          k = 0.5000-0.1443 0.0000 (  5313 PWs)   bands (ev):

   -11.8932 -10.0103  -6.9171  -5.9690  -5.3037   0.3480   0.8279   1.9318
     2.8592

          k = 0.3750-0.0722 0.0000 (  5324 PWs)   bands (ev):

   -12.8096  -9.2280  -6.5545  -5.8387  -4.9036   0.4552   1.5352   1.8157
     2.5908

          k = 0.2500 0.0000 0.0000 (  5357 PWs)   bands (ev):

   -13.5363  -9.0865  -5.7419  -5.3805  -4.1162   0.7560   0.9875   1.8527
     1.9922

          k = 0.0000 0.2887 0.0000 (  5333 PWs)   bands (ev):

   -13.3500  -9.0880  -6.0530  -5.6558  -3.9434  -0.3435   1.5928   1.8260
     2.5548

          k =-0.1250 0.3609 0.0000 (  5324 PWs)   bands (ev):

   -12.8080  -9.2314  -6.5589  -5.8406  -4.8949   0.4597   1.5340   1.8168
     2.5922

          k = 0.7500-0.1443 0.0000 (  5321 PWs)   bands (ev):

   -11.9717  -9.7831  -6.5661  -6.4078  -5.7291   1.0593   1.5276   2.3245
     2.7335

          k = 0.6250-0.0722 0.0000 (  5308 PWs)   bands (ev):

   -11.2320 -10.4480  -6.8148  -6.2511  -6.1030   0.8632   1.8752   1.9521
     2.8765

          k = 0.5000 0.0000 0.0000 (  5321 PWs)   bands (ev):

   -11.9744  -9.7777  -6.5645  -6.4090  -5.7323   1.0600   1.5286   2.3206
     2.7244

          k = 0.0000 0.4330 0.0000 (  5310 PWs)   bands (ev):

   -12.4805  -9.5448  -6.9400  -5.8325  -4.4097  -0.7062   0.9496   1.9494
     3.7823

          k = 0.8750-0.0722 0.0000 (  5313 PWs)   bands (ev):

   -11.8878 -10.0194  -6.9160  -5.9728  -5.2974   0.3526   0.8313   1.9279
     2.8602

          k = 0.7500 0.0000 0.0000 (  5308 PWs)   bands (ev):

   -11.2247 -10.4574  -6.8140  -6.2474  -6.1056   0.8644   1.8744   1.9531
     2.8805

          k = 0.0000-0.5774 0.0000 (  5310 PWs)   bands (ev):

   -11.7882 -10.2539  -6.9988  -5.9638  -4.5742  -0.7955   0.5666   1.9003
     3.7254

     the Fermi energy is    -1.7065 ev

!    total energy              =     -25.13733557 Ry
     estimated scf accuracy    <       0.00000028 Ry
     smearing contrib. (-TS)   =       0.00000000 Ry
     internal energy E=F+TS    =     -25.13733557 Ry

     The total energy is F=E-TS. E is the sum of the following terms:
     one-electron contribution =    -115.02689528 Ry
     hartree contribution      =      58.97271944 Ry
     xc contribution           =     -13.85347668 Ry
     ewald contribution        =      44.77031694 Ry

     convergence has been achieved in   6 iterations

     negative rho (up, down):  9.383E-05 0.000E+00

     Forces acting on atoms (cartesian axes, Ry/au):

     atom    1 type  2   force =     0.00000000   -0.00001638   -0.05724897
     atom    2 type  1   force =     0.00000000   -0.00153258    0.00999662
     atom    3 type  1   force =     0.00000000    0.00153123   -0.01007042
     atom    4 type  2   force =     0.00000000    0.00001773    0.05732277

     Total force =     0.082276     Total SCF correction =     0.000563

     BFGS Geometry Optimization

     number of scf cycles    =   1
     number of bfgs steps    =   0

     energy   new            =     -25.1373355730 Ry

     new trust radius        =       0.0573227730 bohr

     The maximum number of steps has been reached.

     End of BFGS Geometry Optimization

ATOMIC_POSITIONS (crystal)
H            -0.0000013527       -0.0000013527       -0.0015917180
Si           -0.0001265536       -0.0001265536        0.0752779404
Si            0.3331264425        0.3331264425        0.1107200077
H             0.3330014638        0.3330014638        0.1875937699



     Writing output data file /home/jesus/Documentos/Nanociencia_DFT/silicano.save/
     NEW-OLD atomic charge density approx. for the potential

     negative rho (up, down):  9.179E-05 0.000E+00

     Writing output data file /home/jesus/Documentos/Nanociencia_DFT/silicano.save/
 
     init_run     :      1.78s CPU      1.98s WALL (       1 calls)
     electrons    :     23.33s CPU     24.76s WALL (       1 calls)
     update_pot   :      0.77s CPU      0.77s WALL (       1 calls)
     forces       :      1.04s CPU      1.15s WALL (       1 calls)

     Called by init_run:
     wfcinit      :      0.78s CPU      0.79s WALL (       1 calls)
     potinit      :      0.26s CPU      0.28s WALL (       1 calls)
     hinit0       :      0.50s CPU      0.54s WALL (       1 calls)

     Called by electrons:
     c_bands      :     16.90s CPU     16.98s WALL (       6 calls)
     sum_band     :      4.40s CPU      5.02s WALL (       6 calls)
     v_of_rho     :      0.95s CPU      1.00s WALL (       8 calls)
     newd         :      1.60s CPU      2.52s WALL (       8 calls)
     mix_rho      :      0.09s CPU      0.09s WALL (       6 calls)

     Called by c_bands:
     init_us_2    :      0.62s CPU      0.63s WALL (     294 calls)
     cegterg      :     14.52s CPU     14.59s WALL (     126 calls)

     Called by *egterg:
     cdiaghg      :      0.11s CPU      0.11s WALL (     639 calls)
     h_psi        :     13.33s CPU     13.38s WALL (     660 calls)
     s_psi        :      0.51s CPU      0.52s WALL (     660 calls)
     g_psi        :      0.05s CPU      0.05s WALL (     513 calls)

     Called by h_psi:
     h_psi:calbec :      0.53s CPU      0.53s WALL (     660 calls)
     vloc_psi     :     12.21s CPU     12.26s WALL (     660 calls)
     add_vuspsi   :      0.52s CPU      0.52s WALL (     660 calls)

     General routines
     calbec       :      0.73s CPU      0.74s WALL (     870 calls)
     fft          :      0.43s CPU      0.45s WALL (     114 calls)
     ffts         :      0.02s CPU      0.02s WALL (      14 calls)
     fftw         :     12.19s CPU     12.24s WALL (    8290 calls)
     interpolate  :      0.05s CPU      0.05s WALL (       8 calls)
     davcio       :      0.00s CPU      0.14s WALL (      21 calls)
 
     Parallel routines
 
     PWSCF        :     27.96s CPU     30.03s WALL

 
   This run was terminated on:  22:59:57   1Apr2021            

=------------------------------------------------------------------------------=
   JOB DONE.
=------------------------------------------------------------------------------=
