
     Program PWSCF v.6.6 starts on 31Mar2021 at 17: 8:27 

     This program is part of the open-source Quantum ESPRESSO suite
     for quantum simulation of materials; please cite
         "P. Giannozzi et al., J. Phys.:Condens. Matter 21 395502 (2009);
         "P. Giannozzi et al., J. Phys.:Condens. Matter 29 465901 (2017);
          URL http://www.quantum-espresso.org", 
     in publications or presentations arising from this work. More details at
     http://www.quantum-espresso.org/quote

     Parallel version (MPI), running on     1 processors

     MPI processes distributed on     1 nodes
     Fft bands division:     nmany     =       1
     Waiting for input...
     Reading input from standard input
Warning: card &CELL ignored
Warning: card   CELL_DYNAMICS='BFGS', ignored
Warning: card   CELL_DOFREE='ALL', ignored
Warning: card / ignored

     Current dimensions of program PWSCF are:
     Max number of different atomic species (ntypx) = 10
     Max number of k-points (npk) =  40000
     Max angular momentum in pseudopotentials (lmaxx) =  3

     File /home/jesus/Documentos/Nanociencia_DFT/silicano.update deleted, as requested

     File /home/jesus/Documentos/Nanociencia_DFT/silicano.bfgs deleted, as requested
     file H.pbe-kjpaw_psl.1.0.0.UPF: wavefunction(s)  1S renormalized

     Subspace diagonalization in iterative solution of the eigenvalue problem:
     a serial algorithm will be used

     Message from routine setup:
     using ibrav=0 with symmetry is DISCOURAGED, use correct ibrav instead
 
     G-vector sticks info
     --------------------
     sticks:   dense  smooth     PW     G-vecs:    dense   smooth      PW
     Sum         769     517    163                91447    49847    8919
 


     bravais-lattice index     =            0
     lattice parameter (alat)  =       7.3699  a.u.
     unit-cell volume          =    1783.2379 (a.u.)^3
     number of atoms/cell      =            4
     number of atomic types    =            2
     number of electrons       =        10.00
     number of Kohn-Sham states=            9
     kinetic-energy cutoff     =      35.0000  Ry
     charge density cutoff     =     210.0000  Ry
     convergence threshold     =      1.0E-06
     mixing beta               =       0.7000
     number of iterations used =            8  plain     mixing
     Exchange-correlation= SLA PW PBX PBC
                           (   1   4   3   4   0   0   0)
     nstep                     =            1


     celldm(1)=   7.369932  celldm(2)=   0.000000  celldm(3)=   0.000000
     celldm(4)=   0.000000  celldm(5)=   0.000000  celldm(6)=   0.000000

     crystal axes: (cart. coord. in units of alat)
               a(1) = (   0.500000   0.866000   0.000000 )  
               a(2) = (  -0.500000   0.866000   0.000000 )  
               a(3) = (   0.000000   0.000000   5.144000 )  

     reciprocal axes: (cart. coord. in units 2 pi/alat)
               b(1) = (  1.000000  0.577367  0.000000 )  
               b(2) = ( -1.000000  0.577367  0.000000 )  
               b(3) = (  0.000000  0.000000  0.194401 )  


     PseudoPot. # 1 for Si read from file:
     /home/jesus/Nanociencia_DFT/pseudopotenciales/Si.pbe-n-rrkjus_psl.1.0.0.UPF
     MD5 check sum: fa25574f73a70a4139f2adfbefec430c
     Pseudo is Ultrasoft + core correction, Zval =  4.0
     Generated using "atomic" code by A. Dal Corso v.6.3
     Using radial grid of 1141 points,  6 beta functions with: 
                l(1) =   0
                l(2) =   0
                l(3) =   1
                l(4) =   1
                l(5) =   2
                l(6) =   2
     Q(r) pseudized with 0 coefficients 


     PseudoPot. # 2 for H  read from file:
     /home/jesus/Nanociencia_DFT/pseudopotenciales/H.pbe-kjpaw_psl.1.0.0.UPF
     MD5 check sum: d81a744832360e4a8af0b0b5b123bc2a
     Pseudo is Projector augmented-wave, Zval =  1.0
     Generated using "atomic" code by A. Dal Corso v.6.3MaX
     Shape of augmentation charge: PSQ
     Using radial grid of  929 points,  2 beta functions with: 
                l(1) =   0
                l(2) =   0
     Q(r) pseudized with 0 coefficients 


     atomic species   valence    mass     pseudopotential
        Si             4.00    28.08550     Si( 1.00)
        H              1.00     1.00800     H ( 1.00)

      2 Sym. Ops. (no inversion) found



   Cartesian axes

     site n.     atom                  positions (alat units)
         1           H   tau(   1) = (   0.0000000   0.0000000   0.0000000  )
         2           Si  tau(   2) = (   0.0000000   0.0000000   0.3858000  )
         3           Si  tau(   3) = (   0.0000000   0.5767560   0.5709840  )
         4           H   tau(   4) = (   0.0000000   0.5767560   0.9567840  )

     number of k points=    21  Methfessel-Paxton smearing, width (Ry)=  0.0100
                       cart. coord. in units 2pi/alat
        k(    1) = (   0.0000000   0.0000000   0.0000000), wk =   0.0312500
        k(    2) = (  -0.1250000   0.0721709   0.0000000), wk =   0.1250000
        k(    3) = (  -0.2500000   0.1443418   0.0000000), wk =   0.1250000
        k(    4) = (  -0.3750000   0.2165127   0.0000000), wk =   0.1250000
        k(    5) = (   0.5000000  -0.2886836   0.0000000), wk =   0.0625000
        k(    6) = (   0.0000000   0.1443418   0.0000000), wk =   0.0625000
        k(    7) = (  -0.1250000   0.2165127   0.0000000), wk =   0.1250000
        k(    8) = (  -0.2500000   0.2886836   0.0000000), wk =   0.1250000
        k(    9) = (   0.6250000  -0.2165127   0.0000000), wk =   0.1250000
        k(   10) = (   0.5000000  -0.1443418   0.0000000), wk =   0.1250000
        k(   11) = (   0.3750000  -0.0721709   0.0000000), wk =   0.1250000
        k(   12) = (   0.2500000   0.0000000   0.0000000), wk =   0.0625000
        k(   13) = (   0.0000000   0.2886836   0.0000000), wk =   0.0625000
        k(   14) = (  -0.1250000   0.3608545   0.0000000), wk =   0.1250000
        k(   15) = (   0.7500000  -0.1443418   0.0000000), wk =   0.1250000
        k(   16) = (   0.6250000  -0.0721709   0.0000000), wk =   0.1250000
        k(   17) = (   0.5000000   0.0000000   0.0000000), wk =   0.0625000
        k(   18) = (   0.0000000   0.4330254   0.0000000), wk =   0.0625000
        k(   19) = (   0.8750000  -0.0721709   0.0000000), wk =   0.1250000
        k(   20) = (   0.7500000   0.0000000   0.0000000), wk =   0.0625000
        k(   21) = (   0.0000000  -0.5773672   0.0000000), wk =   0.0312500

     Dense  grid:    91447 G-vectors     FFT dimensions: (  36,  36, 180)

     Smooth grid:    49847 G-vectors     FFT dimensions: (  27,  27, 144)

     Estimated max dynamical RAM per process >     347.31 MB

     Initial potential from superposition of free atoms

     starting charge    9.99886, renormalised to   10.00000

     negative rho (up, down):  1.007E-04 0.000E+00
     Starting wfcs are   10 randomized atomic wfcs
     Checking if some PAW data can be deallocated... 

     total cpu time spent up to now is        3.2 secs

     Self-consistent Calculation

     iteration #  1     ecut=    35.00 Ry     beta= 0.70
     Davidson diagonalization with overlap
     ethr =  1.00E-02,  avg # of iterations =  3.1

     negative rho (up, down):  8.236E-05 0.000E+00

     total cpu time spent up to now is        7.9 secs

     total energy              =     -25.15089874 Ry
     estimated scf accuracy    <       0.16341846 Ry

     iteration #  2     ecut=    35.00 Ry     beta= 0.70
     Davidson diagonalization with overlap
     ethr =  1.63E-03,  avg # of iterations =  1.5

     negative rho (up, down):  9.703E-05 0.000E+00

     total cpu time spent up to now is       11.7 secs

     total energy              =     -25.16065221 Ry
     estimated scf accuracy    <       0.00470153 Ry

     iteration #  3     ecut=    35.00 Ry     beta= 0.70
     Davidson diagonalization with overlap
     c_bands:  1 eigenvalues not converged
     c_bands:  1 eigenvalues not converged
     ethr =  4.70E-05,  avg # of iterations =  8.7

     negative rho (up, down):  9.886E-05 0.000E+00

     total cpu time spent up to now is       17.6 secs

     total energy              =     -25.16147200 Ry
     estimated scf accuracy    <       0.00027648 Ry

     iteration #  4     ecut=    35.00 Ry     beta= 0.70
     Davidson diagonalization with overlap
     ethr =  2.76E-06,  avg # of iterations =  5.0

     negative rho (up, down):  1.022E-04 0.000E+00

     total cpu time spent up to now is       22.3 secs

     total energy              =     -25.16151828 Ry
     estimated scf accuracy    <       0.00002458 Ry

     iteration #  5     ecut=    35.00 Ry     beta= 0.70
     Davidson diagonalization with overlap
     ethr =  2.46E-07,  avg # of iterations =  1.7

     negative rho (up, down):  1.023E-04 0.000E+00

     total cpu time spent up to now is       26.0 secs

     total energy              =     -25.16152111 Ry
     estimated scf accuracy    <       0.00000127 Ry

     iteration #  6     ecut=    35.00 Ry     beta= 0.70
     Davidson diagonalization with overlap
     ethr =  1.27E-08,  avg # of iterations =  2.0

     negative rho (up, down):  1.025E-04 0.000E+00

     total cpu time spent up to now is       29.9 secs

     End of self-consistent calculation

          k = 0.0000 0.0000 0.0000 (  6161 PWs)   bands (ev):

   -13.6756  -9.1356  -5.8838  -3.4114  -3.3960  -1.0974   0.5063   0.5229
     0.7639

          k =-0.1250 0.0722 0.0000 (  6190 PWs)   bands (ev):

   -13.5069  -9.0973  -5.8836  -4.5500  -3.7124  -0.4965   0.5586   1.0578
     1.1185

          k =-0.2500 0.1443 0.0000 (  6218 PWs)   bands (ev):

   -13.0144  -9.1183  -6.1418  -5.8456  -4.2566  -0.8364   1.0840   1.3565
     2.3583

          k =-0.3750 0.2165 0.0000 (  6256 PWs)   bands (ev):

   -12.2669  -9.6199  -6.8651  -5.9984  -4.6634  -1.1445   0.6311   1.3171
     2.9699

          k = 0.5000-0.2887 0.0000 (  6258 PWs)   bands (ev):

   -11.6979 -10.2123  -6.9437  -6.0988  -4.8080  -1.2177   0.2759   1.3005
     2.9887

          k = 0.0000 0.1443 0.0000 (  6190 PWs)   bands (ev):

   -13.5067  -9.0974  -5.8838  -4.5579  -3.7031  -0.4937   0.5625   1.0586
     1.1083

          k =-0.1250 0.2165 0.0000 (  6207 PWs)   bands (ev):

   -13.1752  -9.0827  -5.9093  -5.6110  -4.3645   0.1602   0.4128   1.2554
     1.6262

          k =-0.2500 0.2887 0.0000 (  6241 PWs)   bands (ev):

   -12.5441  -9.3362  -6.5553  -5.9980  -5.0550  -0.0823   1.0937   1.2620
     2.0211

          k = 0.6250-0.2165 0.0000 (  6243 PWs)   bands (ev):

   -11.7650 -10.0520  -6.8565  -6.1086  -5.4095  -0.1730   0.5048   1.3143
     2.2393

          k = 0.5000-0.1443 0.0000 (  6243 PWs)   bands (ev):

   -11.7660 -10.0504  -6.8568  -6.1072  -5.4115  -0.1719   0.5038   1.3145
     2.2388

          k = 0.3750-0.0722 0.0000 (  6241 PWs)   bands (ev):

   -12.5451  -9.3342  -6.5535  -5.9961  -5.0608  -0.0807   1.0953   1.2596
     2.0188

          k = 0.2500 0.0000 0.0000 (  6207 PWs)   bands (ev):

   -13.1757  -9.0819  -5.9086  -5.6034  -4.3746   0.1651   0.4036   1.2576
     1.6255

          k = 0.0000 0.2887 0.0000 (  6218 PWs)   bands (ev):

   -13.0135  -9.1197  -6.1467  -5.8466  -4.2498  -0.8301   1.0840   1.3558
     2.3527

          k =-0.1250 0.3609 0.0000 (  6241 PWs)   bands (ev):

   -12.5432  -9.3380  -6.5578  -5.9978  -5.0522  -0.0761   1.0940   1.2604
     2.0200

          k = 0.7500-0.1443 0.0000 (  6257 PWs)   bands (ev):

   -11.8223  -9.8945  -6.5775  -6.3649  -5.8469   0.7399   1.0194   1.7863
     2.1398

          k = 0.6250-0.0722 0.0000 (  6243 PWs)   bands (ev):

   -11.1958 -10.4805  -6.6987  -6.2670  -6.2226   0.6041   1.3660   1.4371
     2.0106

          k = 0.5000 0.0000 0.0000 (  6257 PWs)   bands (ev):

   -11.8252  -9.8893  -6.5758  -6.3644  -5.8516   0.7412   1.0189   1.7830
     2.1315

          k = 0.0000 0.4330 0.0000 (  6256 PWs)   bands (ev):

   -12.2640  -9.6255  -6.8665  -6.0003  -4.6578  -1.1383   0.6323   1.3148
     2.9693

          k = 0.8750-0.0722 0.0000 (  6243 PWs)   bands (ev):

   -11.7605 -10.0594  -6.8566  -6.1103  -5.4053  -0.1668   0.5061   1.3115
     2.2396

          k = 0.7500 0.0000 0.0000 (  6243 PWs)   bands (ev):

   -11.1888 -10.4893  -6.6991  -6.2629  -6.2246   0.6050   1.3646   1.4379
     2.0159

          k = 0.0000-0.5774 0.0000 (  6258 PWs)   bands (ev):

   -11.6905 -10.2234  -6.9428  -6.1018  -4.8028  -1.2117   0.2778   1.2971
     2.9891

     the Fermi energy is    -3.2884 ev

!    total energy              =     -25.16152118 Ry
     estimated scf accuracy    <       0.00000039 Ry
     smearing contrib. (-TS)   =       0.00001858 Ry
     internal energy E=F+TS    =     -25.16153977 Ry

     The total energy is F=E-TS. E is the sum of the following terms:
     one-electron contribution =    -110.61886140 Ry
     hartree contribution      =      56.61741399 Ry
     xc contribution           =     -13.63421326 Ry
     ewald contribution        =      42.47440325 Ry
     one-center paw contrib.   =      -0.00028235 Ry

     convergence has been achieved in   6 iterations

     negative rho (up, down):  1.025E-04 0.000E+00

     Forces acting on atoms (cartesian axes, Ry/au):

     atom    1 type  2   force =     0.00000000   -0.00000965    0.00133646
     atom    2 type  1   force =     0.00000000   -0.00100923    0.00117906
     atom    3 type  1   force =     0.00000000    0.00101005   -0.00091716
     atom    4 type  2   force =     0.00000000    0.00000883   -0.00159835

     Total force =     0.002934     Total SCF correction =     0.001153
     SCF correction compared to forces is large: reduce conv_thr to get better values

     BFGS Geometry Optimization

     number of scf cycles    =   1
     number of bfgs steps    =   0

     energy   new            =     -25.1615211844 Ry

     new trust radius        =       0.0015983734 bohr

     The maximum number of steps has been reached.

     End of BFGS Geometry Optimization

ATOMIC_POSITIONS (crystal)
H            -0.0000007558       -0.0000007558        0.0000352525
Si           -0.0000790640       -0.0000790640        0.0750311007
Si            0.3330791284        0.3330791284        0.1109758074
H             0.3330006914        0.3330006914        0.1859578394



     Writing output data file /home/jesus/Documentos/Nanociencia_DFT/silicano.save/
     NEW-OLD atomic charge density approx. for the potential

     negative rho (up, down):  1.026E-04 0.000E+00

     Writing output data file /home/jesus/Documentos/Nanociencia_DFT/silicano.save/
 
     init_run     :      2.14s CPU      2.38s WALL (       1 calls)
     electrons    :     25.05s CPU     26.66s WALL (       1 calls)
     update_pot   :      0.60s CPU      0.60s WALL (       1 calls)
     forces       :      1.07s CPU      1.18s WALL (       1 calls)

     Called by init_run:
     wfcinit      :      1.01s CPU      1.02s WALL (       1 calls)
     potinit      :      0.33s CPU      0.35s WALL (       1 calls)
     hinit0       :      0.50s CPU      0.54s WALL (       1 calls)

     Called by electrons:
     c_bands      :     17.69s CPU     17.77s WALL (       6 calls)
     sum_band     :      4.77s CPU      5.49s WALL (       6 calls)
     v_of_rho     :      0.99s CPU      1.03s WALL (       8 calls)
     newd         :      2.18s CPU      3.20s WALL (       8 calls)
     PAW_pot      :      0.01s CPU      0.01s WALL (       9 calls)
     mix_rho      :      0.11s CPU      0.11s WALL (       6 calls)

     Called by c_bands:
     init_us_2    :      0.78s CPU      0.79s WALL (     315 calls)
     cegterg      :     14.94s CPU     15.02s WALL (     126 calls)

     Called by *egterg:
     cdiaghg      :      0.10s CPU      0.10s WALL (     588 calls)
     h_psi        :     13.74s CPU     13.81s WALL (     609 calls)
     s_psi        :      0.54s CPU      0.55s WALL (     609 calls)
     g_psi        :      0.06s CPU      0.06s WALL (     462 calls)

     Called by h_psi:
     h_psi:calbec :      0.57s CPU      0.57s WALL (     609 calls)
     vloc_psi     :     12.55s CPU     12.61s WALL (     609 calls)
     add_vuspsi   :      0.54s CPU      0.54s WALL (     609 calls)

     General routines
     calbec       :      0.84s CPU      0.84s WALL (     840 calls)
     fft          :      0.43s CPU      0.45s WALL (     114 calls)
     ffts         :      0.02s CPU      0.02s WALL (      14 calls)
     fftw         :     12.31s CPU     12.38s WALL (    8218 calls)
     interpolate  :      0.06s CPU      0.06s WALL (       8 calls)
     davcio       :      0.00s CPU      0.01s WALL (      21 calls)
 
     Parallel routines
 
     PWSCF        :     30.08s CPU     32.21s WALL

 
   This run was terminated on:  17: 8:59  31Mar2021            

=------------------------------------------------------------------------------=
   JOB DONE.
=------------------------------------------------------------------------------=
