
     Program PWSCF v.6.6 starts on 15Mar2021 at 17:32:24 

     This program is part of the open-source Quantum ESPRESSO suite
     for quantum simulation of materials; please cite
         "P. Giannozzi et al., J. Phys.:Condens. Matter 21 395502 (2009);
         "P. Giannozzi et al., J. Phys.:Condens. Matter 29 465901 (2017);
          URL http://www.quantum-espresso.org", 
     in publications or presentations arising from this work. More details at
     http://www.quantum-espresso.org/quote

     Parallel version (MPI), running on     1 processors

     MPI processes distributed on     1 nodes
     Fft bands division:     nmany     =       1
     Waiting for input...
     Reading input from standard input
Warning: card &CELL ignored
Warning: card   CELL_DYNAMICS='BFGS', ignored
Warning: card   CELL_DOFREE='ALL', ignored
Warning: card / ignored

     Current dimensions of program PWSCF are:
     Max number of different atomic species (ntypx) = 10
     Max number of k-points (npk) =  40000
     Max angular momentum in pseudopotentials (lmaxx) =  3

     Subspace diagonalization in iterative solution of the eigenvalue problem:
     a serial algorithm will be used

 
     G-vector sticks info
     --------------------
     sticks:   dense  smooth     PW     G-vecs:    dense   smooth      PW
     Sum        1285     649    199                30731    10849    1893
 


     bravais-lattice index     =            2
     lattice parameter (alat)  =      10.2045  a.u.
     unit-cell volume          =     265.6549 (a.u.)^3
     number of atoms/cell      =            2
     number of atomic types    =            1
     number of electrons       =         8.00
     number of Kohn-Sham states=            8
     kinetic-energy cutoff     =      45.0000  Ry
     charge density cutoff     =     360.0000  Ry
     convergence threshold     =      1.0E-06
     mixing beta               =       0.7000
     number of iterations used =            8  plain     mixing
     Exchange-correlation= PBE
                           (   1   4   3   4   0   0   0)

     celldm(1)=  10.204521  celldm(2)=   0.000000  celldm(3)=   0.000000
     celldm(4)=   0.000000  celldm(5)=   0.000000  celldm(6)=   0.000000

     crystal axes: (cart. coord. in units of alat)
               a(1) = (  -0.500000   0.000000   0.500000 )  
               a(2) = (   0.000000   0.500000   0.500000 )  
               a(3) = (  -0.500000   0.500000   0.000000 )  

     reciprocal axes: (cart. coord. in units 2 pi/alat)
               b(1) = ( -1.000000 -1.000000  1.000000 )  
               b(2) = (  1.000000  1.000000  1.000000 )  
               b(3) = ( -1.000000  1.000000 -1.000000 )  


     PseudoPot. # 1 for Si read from file:
     /home/jesus/Documentos/Nanociencia_DFT/pseudopotenciales/Si.pbe-n-rrkjus_psl.1.0.0.UPF
     MD5 check sum: fa25574f73a70a4139f2adfbefec430c
     Pseudo is Ultrasoft + core correction, Zval =  4.0
     Generated using "atomic" code by A. Dal Corso v.6.3
     Using radial grid of 1141 points,  6 beta functions with: 
                l(1) =   0
                l(2) =   0
                l(3) =   1
                l(4) =   1
                l(5) =   2
                l(6) =   2
     Q(r) pseudized with 0 coefficients 


     atomic species   valence    mass     pseudopotential
        Si             4.00    28.08550     Si( 1.00)

     48 Sym. Ops., with inversion, found (24 have fractional translation)



   Cartesian axes

     site n.     atom                  positions (alat units)
         1           Si  tau(   1) = (   0.0000000   0.0000000   0.0000000  )
         2           Si  tau(   2) = (  -0.2500000   0.2500000   0.2500000  )

     number of k points=    20  Methfessel-Paxton smearing, width (Ry)=  0.0100
                       cart. coord. in units 2pi/alat
        k(    1) = (   0.0000000   0.0000000   0.0000000), wk =   0.0058309
        k(    2) = (  -0.1428571   0.1428571  -0.1428571), wk =   0.0466472
        k(    3) = (  -0.2857143   0.2857143  -0.2857143), wk =   0.0466472
        k(    4) = (  -0.4285714   0.4285714  -0.4285714), wk =   0.0466472
        k(    5) = (   0.0000000   0.2857143   0.0000000), wk =   0.0349854
        k(    6) = (  -0.1428571   0.4285714  -0.1428571), wk =   0.1399417
        k(    7) = (  -0.2857143   0.5714286  -0.2857143), wk =   0.1399417
        k(    8) = (   0.5714286  -0.2857143   0.5714286), wk =   0.1399417
        k(    9) = (   0.4285714  -0.1428571   0.4285714), wk =   0.1399417
        k(   10) = (   0.2857143  -0.0000000   0.2857143), wk =   0.0699708
        k(   11) = (   0.0000000   0.5714286   0.0000000), wk =   0.0349854
        k(   12) = (  -0.1428571   0.7142857  -0.1428571), wk =   0.1399417
        k(   13) = (   0.7142857  -0.1428571   0.7142857), wk =   0.1399417
        k(   14) = (   0.5714286   0.0000000   0.5714286), wk =   0.0699708
        k(   15) = (   0.0000000   0.8571429   0.0000000), wk =   0.0349854
        k(   16) = (   0.8571429  -0.0000000   0.8571429), wk =   0.0699708
        k(   17) = (  -0.2857143   0.5714286   0.0000000), wk =   0.1399417
        k(   18) = (   0.5714286  -0.2857143   0.8571429), wk =   0.2798834
        k(   19) = (   0.7142857  -0.1428571   1.0000000), wk =   0.1399417
        k(   20) = (   0.5714286   0.0000000   0.8571429), wk =   0.1399417

     Dense  grid:    30731 G-vectors     FFT dimensions: (  48,  48,  48)

     Smooth grid:    10849 G-vectors     FFT dimensions: (  32,  32,  32)

     Estimated max dynamical RAM per process >     114.11 MB

     Initial potential from superposition of free atoms

     starting charge    7.99888, renormalised to    8.00000
     Starting wfcs are    8 randomized atomic wfcs

     total cpu time spent up to now is        1.2 secs

     Self-consistent Calculation

     iteration #  1     ecut=    45.00 Ry     beta= 0.70
     Davidson diagonalization with overlap
     ethr =  1.00E-02,  avg # of iterations =  4.2

     Threshold (ethr) on eigenvalues was too large:
     Diagonalizing with lowered threshold

     Davidson diagonalization with overlap
     ethr =  6.69E-04,  avg # of iterations =  1.4

     total cpu time spent up to now is        2.4 secs

     total energy              =     -22.83556713 Ry
     estimated scf accuracy    <       0.05740205 Ry

     iteration #  2     ecut=    45.00 Ry     beta= 0.70
     Davidson diagonalization with overlap
     ethr =  7.18E-04,  avg # of iterations =  1.0

     total cpu time spent up to now is        2.9 secs

     total energy              =     -22.83804543 Ry
     estimated scf accuracy    <       0.00222197 Ry

     iteration #  3     ecut=    45.00 Ry     beta= 0.70
     Davidson diagonalization with overlap
     ethr =  2.78E-05,  avg # of iterations =  4.9

     total cpu time spent up to now is        3.6 secs

     total energy              =     -22.83818993 Ry
     estimated scf accuracy    <       0.00005079 Ry

     iteration #  4     ecut=    45.00 Ry     beta= 0.70
     Davidson diagonalization with overlap
     ethr =  6.35E-07,  avg # of iterations =  3.8

     total cpu time spent up to now is        4.3 secs

     End of self-consistent calculation

          k = 0.0000 0.0000 0.0000 (  1363 PWs)   bands (ev):

    -5.6959   6.3850   6.3850   6.3850   8.9533   8.9533   8.9533   9.9412

          k =-0.1429 0.1429-0.1429 (  1360 PWs)   bands (ev):

    -5.4259   4.4423   6.0211   6.0211   8.8742   9.4840   9.4840  11.5606

          k =-0.2857 0.2857-0.2857 (  1357 PWs)   bands (ev):

    -4.6470   1.7887   5.4984   5.4984   8.3470   9.9298   9.9299  13.9674

          k =-0.4286 0.4286-0.4286 (  1374 PWs)   bands (ev):

    -3.5845  -0.2777   5.2068   5.2068   8.0231   9.7603   9.7604  14.2042

          k = 0.0000 0.2857 0.0000 (  1355 PWs)   bands (ev):

    -5.3346   4.7686   5.3920   5.3920   8.2617  10.3870  10.3870  10.9292

          k =-0.1429 0.4286-0.1429 (  1348 PWs)   bands (ev):

    -4.7182   2.6060   4.8117   4.8414   8.4624  10.3709  10.9412  11.1748

          k =-0.2857 0.5714-0.2857 (  1357 PWs)   bands (ev):

    -3.6904   0.3820   4.1142   4.6516   8.5350  10.2566  10.9351  12.2085

          k = 0.5714-0.2857 0.5714 (  1363 PWs)   bands (ev):

    -3.1167  -0.5027   3.6910   4.8550   8.6487  10.1504  10.5277  14.6317

          k = 0.4286-0.1429 0.4286 (  1352 PWs)   bands (ev):

    -4.0663   1.0750   3.6888   5.3794   9.0767  10.2976  10.3416  13.1221

          k = 0.2857-0.0000 0.2857 (  1365 PWs)   bands (ev):

    -4.9829   3.2357   4.3796   5.9836   9.5029   9.6946   9.9694  12.1034

          k = 0.0000 0.5714 0.0000 (  1343 PWs)   bands (ev):

    -4.2676   2.2197   4.2082   4.2082   7.2953   8.9816  12.8434  12.8435

          k =-0.1429 0.7143-0.1429 (  1357 PWs)   bands (ev):

    -3.3497   0.6918   3.2097   3.9450   7.5772   9.0785  13.0948  13.2222

          k = 0.7143-0.1429 0.7143 (  1347 PWs)   bands (ev):

    -2.4098  -0.5148   2.2380   4.1178   7.8193  11.3485  12.7066  12.8429

          k = 0.5714 0.0000 0.5714 (  1346 PWs)   bands (ev):

    -3.0743   0.2511   2.1593   4.6779   8.4444  11.8877  12.2215  13.1128

          k = 0.0000 0.8571 0.0000 (  1347 PWs)   bands (ev):

    -2.5538  -0.3183   3.5672   3.5672   6.9263   7.4408  15.5360  15.5360

          k = 0.8571-0.0000 0.8571 (  1340 PWs)   bands (ev):

    -1.5833  -1.2947   2.6481   3.6301   7.2288   8.5119  15.3119  15.8046

          k =-0.2857 0.5714 0.0000 (  1363 PWs)   bands (ev):

    -3.9530   1.4644   3.2117   4.5658   8.9746  10.2313  10.5680  12.5902

          k = 0.5714-0.2857 0.8571 (  1358 PWs)   bands (ev):

    -2.8894  -0.0995   2.6369   4.0146   9.4599   9.8909  11.9001  13.0447

          k = 0.7143-0.1429 1.0000 (  1346 PWs)   bands (ev):

    -2.3426  -0.4031   2.7179   3.1343   8.5917   8.9562  12.6024  15.1640

          k = 0.5714 0.0000 0.8571 (  1359 PWs)   bands (ev):

    -1.8929  -0.8088   2.0607   3.2291   9.1226  11.2368  12.1031  12.2272

     the Fermi energy is     6.8118 ev

!    total energy              =     -22.83819739 Ry
     estimated scf accuracy    <       0.00000009 Ry
     smearing contrib. (-TS)   =       0.00001028 Ry
     internal energy E=F+TS    =     -22.83820768 Ry

     The total energy is F=E-TS. E is the sum of the following terms:
     one-electron contribution =       5.29730309 Ry
     hartree contribution      =       1.08749397 Ry
     xc contribution           =     -12.33073353 Ry
     ewald contribution        =     -16.89227120 Ry

     convergence has been achieved in   4 iterations

     Writing output data file /home/jesus/Documentos/Nanociencia_DFT/test.save/
 
     init_run     :      0.52s CPU      0.59s WALL (       1 calls)
     electrons    :      2.72s CPU      3.13s WALL (       1 calls)

     Called by init_run:
     wfcinit      :      0.10s CPU      0.11s WALL (       1 calls)
     potinit      :      0.05s CPU      0.06s WALL (       1 calls)
     hinit0       :      0.27s CPU      0.29s WALL (       1 calls)

     Called by electrons:
     c_bands      :      1.70s CPU      1.72s WALL (       5 calls)
     sum_band     :      0.64s CPU      0.81s WALL (       5 calls)
     v_of_rho     :      0.22s CPU      0.25s WALL (       5 calls)
     newd         :      0.24s CPU      0.48s WALL (       5 calls)
     mix_rho      :      0.01s CPU      0.01s WALL (       5 calls)

     Called by c_bands:
     init_us_2    :      0.08s CPU      0.09s WALL (     220 calls)
     cegterg      :      1.30s CPU      1.31s WALL (     100 calls)

     Called by *egterg:
     cdiaghg      :      0.04s CPU      0.04s WALL (     384 calls)
     h_psi        :      1.18s CPU      1.20s WALL (     424 calls)
     s_psi        :      0.04s CPU      0.04s WALL (     424 calls)
     g_psi        :      0.01s CPU      0.01s WALL (     304 calls)

     Called by h_psi:
     h_psi:calbec :      0.05s CPU      0.05s WALL (     424 calls)
     vloc_psi     :      1.07s CPU      1.09s WALL (     424 calls)
     add_vuspsi   :      0.05s CPU      0.05s WALL (     424 calls)

     General routines
     calbec       :      0.07s CPU      0.07s WALL (     524 calls)
     fft          :      0.07s CPU      0.09s WALL (      64 calls)
     ffts         :      0.00s CPU      0.00s WALL (      10 calls)
     fftw         :      1.07s CPU      1.08s WALL (    5420 calls)
     interpolate  :      0.01s CPU      0.01s WALL (       5 calls)
 
     Parallel routines
 
     PWSCF        :      3.84s CPU      4.33s WALL

 
   This run was terminated on:  17:32:29  15Mar2021            

=------------------------------------------------------------------------------=
   JOB DONE.
=------------------------------------------------------------------------------=
