
     Program PWSCF v.6.6 starts on 15Mar2021 at 17:32:20 

     This program is part of the open-source Quantum ESPRESSO suite
     for quantum simulation of materials; please cite
         "P. Giannozzi et al., J. Phys.:Condens. Matter 21 395502 (2009);
         "P. Giannozzi et al., J. Phys.:Condens. Matter 29 465901 (2017);
          URL http://www.quantum-espresso.org", 
     in publications or presentations arising from this work. More details at
     http://www.quantum-espresso.org/quote

     Parallel version (MPI), running on     1 processors

     MPI processes distributed on     1 nodes
     Fft bands division:     nmany     =       1
     Waiting for input...
     Reading input from standard input
Warning: card &CELL ignored
Warning: card   CELL_DYNAMICS='BFGS', ignored
Warning: card   CELL_DOFREE='ALL', ignored
Warning: card / ignored

     Current dimensions of program PWSCF are:
     Max number of different atomic species (ntypx) = 10
     Max number of k-points (npk) =  40000
     Max angular momentum in pseudopotentials (lmaxx) =  3

     Subspace diagonalization in iterative solution of the eigenvalue problem:
     a serial algorithm will be used

 
     G-vector sticks info
     --------------------
     sticks:   dense  smooth     PW     G-vecs:    dense   smooth      PW
     Sum        1159     583    187                25821     9185    1639
 


     bravais-lattice index     =            2
     lattice parameter (alat)  =      10.2045  a.u.
     unit-cell volume          =     265.6549 (a.u.)^3
     number of atoms/cell      =            2
     number of atomic types    =            1
     number of electrons       =         8.00
     number of Kohn-Sham states=            8
     kinetic-energy cutoff     =      40.0000  Ry
     charge density cutoff     =     320.0000  Ry
     convergence threshold     =      1.0E-06
     mixing beta               =       0.7000
     number of iterations used =            8  plain     mixing
     Exchange-correlation= PBE
                           (   1   4   3   4   0   0   0)

     celldm(1)=  10.204521  celldm(2)=   0.000000  celldm(3)=   0.000000
     celldm(4)=   0.000000  celldm(5)=   0.000000  celldm(6)=   0.000000

     crystal axes: (cart. coord. in units of alat)
               a(1) = (  -0.500000   0.000000   0.500000 )  
               a(2) = (   0.000000   0.500000   0.500000 )  
               a(3) = (  -0.500000   0.500000   0.000000 )  

     reciprocal axes: (cart. coord. in units 2 pi/alat)
               b(1) = ( -1.000000 -1.000000  1.000000 )  
               b(2) = (  1.000000  1.000000  1.000000 )  
               b(3) = ( -1.000000  1.000000 -1.000000 )  


     PseudoPot. # 1 for Si read from file:
     /home/jesus/Documentos/Nanociencia_DFT/pseudopotenciales/Si.pbe-n-rrkjus_psl.1.0.0.UPF
     MD5 check sum: fa25574f73a70a4139f2adfbefec430c
     Pseudo is Ultrasoft + core correction, Zval =  4.0
     Generated using "atomic" code by A. Dal Corso v.6.3
     Using radial grid of 1141 points,  6 beta functions with: 
                l(1) =   0
                l(2) =   0
                l(3) =   1
                l(4) =   1
                l(5) =   2
                l(6) =   2
     Q(r) pseudized with 0 coefficients 


     atomic species   valence    mass     pseudopotential
        Si             4.00    28.08550     Si( 1.00)

     48 Sym. Ops., with inversion, found (24 have fractional translation)



   Cartesian axes

     site n.     atom                  positions (alat units)
         1           Si  tau(   1) = (   0.0000000   0.0000000   0.0000000  )
         2           Si  tau(   2) = (  -0.2500000   0.2500000   0.2500000  )

     number of k points=    20  Methfessel-Paxton smearing, width (Ry)=  0.0100
                       cart. coord. in units 2pi/alat
        k(    1) = (   0.0000000   0.0000000   0.0000000), wk =   0.0058309
        k(    2) = (  -0.1428571   0.1428571  -0.1428571), wk =   0.0466472
        k(    3) = (  -0.2857143   0.2857143  -0.2857143), wk =   0.0466472
        k(    4) = (  -0.4285714   0.4285714  -0.4285714), wk =   0.0466472
        k(    5) = (   0.0000000   0.2857143   0.0000000), wk =   0.0349854
        k(    6) = (  -0.1428571   0.4285714  -0.1428571), wk =   0.1399417
        k(    7) = (  -0.2857143   0.5714286  -0.2857143), wk =   0.1399417
        k(    8) = (   0.5714286  -0.2857143   0.5714286), wk =   0.1399417
        k(    9) = (   0.4285714  -0.1428571   0.4285714), wk =   0.1399417
        k(   10) = (   0.2857143  -0.0000000   0.2857143), wk =   0.0699708
        k(   11) = (   0.0000000   0.5714286   0.0000000), wk =   0.0349854
        k(   12) = (  -0.1428571   0.7142857  -0.1428571), wk =   0.1399417
        k(   13) = (   0.7142857  -0.1428571   0.7142857), wk =   0.1399417
        k(   14) = (   0.5714286   0.0000000   0.5714286), wk =   0.0699708
        k(   15) = (   0.0000000   0.8571429   0.0000000), wk =   0.0349854
        k(   16) = (   0.8571429  -0.0000000   0.8571429), wk =   0.0699708
        k(   17) = (  -0.2857143   0.5714286   0.0000000), wk =   0.1399417
        k(   18) = (   0.5714286  -0.2857143   0.8571429), wk =   0.2798834
        k(   19) = (   0.7142857  -0.1428571   1.0000000), wk =   0.1399417
        k(   20) = (   0.5714286   0.0000000   0.8571429), wk =   0.1399417

     Dense  grid:    25821 G-vectors     FFT dimensions: (  48,  48,  48)

     Smooth grid:     9185 G-vectors     FFT dimensions: (  32,  32,  32)

     Estimated max dynamical RAM per process >      97.24 MB

     Initial potential from superposition of free atoms

     starting charge    7.99888, renormalised to    8.00000
     Starting wfcs are    8 randomized atomic wfcs

     total cpu time spent up to now is        1.1 secs

     Self-consistent Calculation

     iteration #  1     ecut=    40.00 Ry     beta= 0.70
     Davidson diagonalization with overlap
     ethr =  1.00E-02,  avg # of iterations =  4.2

     Threshold (ethr) on eigenvalues was too large:
     Diagonalizing with lowered threshold

     Davidson diagonalization with overlap
     ethr =  6.70E-04,  avg # of iterations =  1.4

     total cpu time spent up to now is        2.2 secs

     total energy              =     -22.83552018 Ry
     estimated scf accuracy    <       0.05748389 Ry

     iteration #  2     ecut=    40.00 Ry     beta= 0.70
     Davidson diagonalization with overlap
     ethr =  7.19E-04,  avg # of iterations =  1.1

     total cpu time spent up to now is        2.7 secs

     total energy              =     -22.83799171 Ry
     estimated scf accuracy    <       0.00221570 Ry

     iteration #  3     ecut=    40.00 Ry     beta= 0.70
     Davidson diagonalization with overlap
     ethr =  2.77E-05,  avg # of iterations =  4.8

     total cpu time spent up to now is        3.4 secs

     total energy              =     -22.83813543 Ry
     estimated scf accuracy    <       0.00005067 Ry

     iteration #  4     ecut=    40.00 Ry     beta= 0.70
     Davidson diagonalization with overlap
     ethr =  6.33E-07,  avg # of iterations =  3.8

     total cpu time spent up to now is        4.0 secs

     End of self-consistent calculation

          k = 0.0000 0.0000 0.0000 (  1139 PWs)   bands (ev):

    -5.6959   6.3849   6.3849   6.3849   8.9533   8.9533   8.9533   9.9412

          k =-0.1429 0.1429-0.1429 (  1143 PWs)   bands (ev):

    -5.4259   4.4423   6.0210   6.0210   8.8741   9.4839   9.4839  11.5605

          k =-0.2857 0.2857-0.2857 (  1128 PWs)   bands (ev):

    -4.6470   1.7886   5.4982   5.4982   8.3469   9.9298   9.9298  13.9655

          k =-0.4286 0.4286-0.4286 (  1143 PWs)   bands (ev):

    -3.5845  -0.2777   5.2067   5.2067   8.0230   9.7603   9.7604  14.2042

          k = 0.0000 0.2857 0.0000 (  1154 PWs)   bands (ev):

    -5.3346   4.7685   5.3919   5.3919   8.2616  10.3869  10.3869  10.9292

          k =-0.1429 0.4286-0.1429 (  1136 PWs)   bands (ev):

    -4.7182   2.6059   4.8116   4.8413   8.4624  10.3709  10.9413  11.1748

          k =-0.2857 0.5714-0.2857 (  1125 PWs)   bands (ev):

    -3.6905   0.3819   4.1141   4.6515   8.5349  10.2566  10.9350  12.2083

          k = 0.5714-0.2857 0.5714 (  1138 PWs)   bands (ev):

    -3.1167  -0.5028   3.6910   4.8549   8.6487  10.1504  10.5277  14.6317

          k = 0.4286-0.1429 0.4286 (  1124 PWs)   bands (ev):

    -4.0663   1.0750   3.6888   5.3793   9.0767  10.2975  10.3416  13.1218

          k = 0.2857-0.0000 0.2857 (  1141 PWs)   bands (ev):

    -4.9829   3.2356   4.3795   5.9835   9.5029   9.6945   9.9693  12.1034

          k = 0.0000 0.5714 0.0000 (  1130 PWs)   bands (ev):

    -4.2676   2.2196   4.2081   4.2081   7.2953   8.9816  12.8433  12.8433

          k =-0.1429 0.7143-0.1429 (  1129 PWs)   bands (ev):

    -3.3498   0.6917   3.2096   3.9449   7.5772   9.0785  13.0947  13.2224

          k = 0.7143-0.1429 0.7143 (  1139 PWs)   bands (ev):

    -2.4099  -0.5149   2.2379   4.1177   7.8193  11.3484  12.7064  12.8428

          k = 0.5714 0.0000 0.5714 (  1135 PWs)   bands (ev):

    -3.0743   0.2511   2.1592   4.6778   8.4443  11.8877  12.2214  13.1128

          k = 0.0000 0.8571 0.0000 (  1138 PWs)   bands (ev):

    -2.5538  -0.3184   3.5671   3.5671   6.9263   7.4407  15.5359  15.5362

          k = 0.8571-0.0000 0.8571 (  1136 PWs)   bands (ev):

    -1.5834  -1.2948   2.6481   3.6300   7.2287   8.5119  15.3117  15.8047

          k =-0.2857 0.5714 0.0000 (  1131 PWs)   bands (ev):

    -3.9530   1.4643   3.2116   4.5657   8.9746  10.2313  10.5679  12.5902

          k = 0.5714-0.2857 0.8571 (  1134 PWs)   bands (ev):

    -2.8895  -0.0995   2.6369   4.0145   9.4598   9.8909  11.9000  13.0444

          k = 0.7143-0.1429 1.0000 (  1130 PWs)   bands (ev):

    -2.3426  -0.4031   2.7178   3.1342   8.5917   8.9562  12.6024  15.1640

          k = 0.5714 0.0000 0.8571 (  1133 PWs)   bands (ev):

    -1.8930  -0.8089   2.0607   3.2290   9.1225  11.2368  12.1033  12.2271

     the Fermi energy is     6.8118 ev

!    total energy              =     -22.83814263 Ry
     estimated scf accuracy    <       0.00000008 Ry
     smearing contrib. (-TS)   =       0.00001028 Ry
     internal energy E=F+TS    =     -22.83815292 Ry

     The total energy is F=E-TS. E is the sum of the following terms:
     one-electron contribution =       5.29732144 Ry
     hartree contribution      =       1.08752582 Ry
     xc contribution           =     -12.33072899 Ry
     ewald contribution        =     -16.89227120 Ry

     convergence has been achieved in   4 iterations

     Writing output data file /home/jesus/Documentos/Nanociencia_DFT/test.save/
 
     init_run     :      0.47s CPU      0.55s WALL (       1 calls)
     electrons    :      2.56s CPU      2.85s WALL (       1 calls)

     Called by init_run:
     wfcinit      :      0.11s CPU      0.11s WALL (       1 calls)
     potinit      :      0.06s CPU      0.07s WALL (       1 calls)
     hinit0       :      0.25s CPU      0.27s WALL (       1 calls)

     Called by electrons:
     c_bands      :      1.59s CPU      1.62s WALL (       5 calls)
     sum_band     :      0.58s CPU      0.70s WALL (       5 calls)
     v_of_rho     :      0.23s CPU      0.24s WALL (       5 calls)
     newd         :      0.22s CPU      0.40s WALL (       5 calls)
     mix_rho      :      0.01s CPU      0.01s WALL (       5 calls)

     Called by c_bands:
     init_us_2    :      0.07s CPU      0.07s WALL (     220 calls)
     cegterg      :      1.26s CPU      1.28s WALL (     100 calls)

     Called by *egterg:
     cdiaghg      :      0.04s CPU      0.04s WALL (     384 calls)
     h_psi        :      1.18s CPU      1.19s WALL (     424 calls)
     s_psi        :      0.04s CPU      0.04s WALL (     424 calls)
     g_psi        :      0.01s CPU      0.01s WALL (     304 calls)

     Called by h_psi:
     h_psi:calbec :      0.04s CPU      0.04s WALL (     424 calls)
     vloc_psi     :      1.09s CPU      1.10s WALL (     424 calls)
     add_vuspsi   :      0.04s CPU      0.04s WALL (     424 calls)

     General routines
     calbec       :      0.05s CPU      0.06s WALL (     524 calls)
     fft          :      0.07s CPU      0.09s WALL (      64 calls)
     ffts         :      0.00s CPU      0.00s WALL (      10 calls)
     fftw         :      1.10s CPU      1.11s WALL (    5386 calls)
     interpolate  :      0.01s CPU      0.01s WALL (       5 calls)
 
     Parallel routines
 
     PWSCF        :      3.61s CPU      4.01s WALL

 
   This run was terminated on:  17:32:24  15Mar2021            

=------------------------------------------------------------------------------=
   JOB DONE.
=------------------------------------------------------------------------------=
