
     Program PWSCF v.6.6 starts on 30Mar2021 at 22: 6:23 

     This program is part of the open-source Quantum ESPRESSO suite
     for quantum simulation of materials; please cite
         "P. Giannozzi et al., J. Phys.:Condens. Matter 21 395502 (2009);
         "P. Giannozzi et al., J. Phys.:Condens. Matter 29 465901 (2017);
          URL http://www.quantum-espresso.org", 
     in publications or presentations arising from this work. More details at
     http://www.quantum-espresso.org/quote

     Parallel version (MPI), running on     1 processors

     MPI processes distributed on     1 nodes
     Fft bands division:     nmany     =       1
     Waiting for input...
     Reading input from standard input
Warning: card &CELL ignored
Warning: card   CELL_DYNAMICS='BFGS', ignored
Warning: card   CELL_DOFREE='ALL', ignored
Warning: card / ignored

     Current dimensions of program PWSCF are:
     Max number of different atomic species (ntypx) = 10
     Max number of k-points (npk) =  40000
     Max angular momentum in pseudopotentials (lmaxx) =  3
     file H.pbe-kjpaw_psl.1.0.0.UPF: wavefunction(s)  1S renormalized

     Subspace diagonalization in iterative solution of the eigenvalue problem:
     a serial algorithm will be used

     Message from routine setup:
     using ibrav=0 with symmetry is DISCOURAGED, use correct ibrav instead
 
     G-vector sticks info
     --------------------
     sticks:   dense  smooth     PW     G-vecs:    dense   smooth      PW
     Sum        1495     745    241               238659    84483   14747
 


     bravais-lattice index     =            0
     lattice parameter (alat)  =       7.3457  a.u.
     unit-cell volume          =    1765.6965 (a.u.)^3
     number of atoms/cell      =            4
     number of atomic types    =            2
     number of electrons       =        10.00
     number of Kohn-Sham states=            9
     kinetic-energy cutoff     =      50.0000  Ry
     charge density cutoff     =     400.0000  Ry
     convergence threshold     =      1.0E-06
     mixing beta               =       0.7000
     number of iterations used =            8  plain     mixing
     Exchange-correlation= SLA PW PBX PBC
                           (   1   4   3   4   0   0   0)

     celldm(1)=   7.345687  celldm(2)=   0.000000  celldm(3)=   0.000000
     celldm(4)=   0.000000  celldm(5)=   0.000000  celldm(6)=   0.000000

     crystal axes: (cart. coord. in units of alat)
               a(1) = (   0.500000   0.866000   0.000000 )  
               a(2) = (  -0.500000   0.866000   0.000000 )  
               a(3) = (   0.000000   0.000000   5.144000 )  

     reciprocal axes: (cart. coord. in units 2 pi/alat)
               b(1) = (  1.000000  0.577367  0.000000 )  
               b(2) = ( -1.000000  0.577367  0.000000 )  
               b(3) = (  0.000000  0.000000  0.194401 )  


     PseudoPot. # 1 for Si read from file:
     /home/jesus/Nanociencia_DFT/pseudopotenciales/Si.pbe-n-rrkjus_psl.1.0.0.UPF
     MD5 check sum: fa25574f73a70a4139f2adfbefec430c
     Pseudo is Ultrasoft + core correction, Zval =  4.0
     Generated using "atomic" code by A. Dal Corso v.6.3
     Using radial grid of 1141 points,  6 beta functions with: 
                l(1) =   0
                l(2) =   0
                l(3) =   1
                l(4) =   1
                l(5) =   2
                l(6) =   2
     Q(r) pseudized with 0 coefficients 


     PseudoPot. # 2 for H  read from file:
     /home/jesus/Nanociencia_DFT/pseudopotenciales/H.pbe-kjpaw_psl.1.0.0.UPF
     MD5 check sum: d81a744832360e4a8af0b0b5b123bc2a
     Pseudo is Projector augmented-wave, Zval =  1.0
     Generated using "atomic" code by A. Dal Corso v.6.3MaX
     Shape of augmentation charge: PSQ
     Using radial grid of  929 points,  2 beta functions with: 
                l(1) =   0
                l(2) =   0
     Q(r) pseudized with 0 coefficients 


     atomic species   valence    mass     pseudopotential
        Si             4.00    28.08550     Si( 1.00)
        H              1.00     1.00800     H ( 1.00)

      2 Sym. Ops. (no inversion) found



   Cartesian axes

     site n.     atom                  positions (alat units)
         1           H   tau(   1) = (   0.0000000   0.0000000   0.0000000  )
         2           Si  tau(   2) = (   0.0000000   0.0000000   0.3858000  )
         3           Si  tau(   3) = (   0.0000000   0.5767560   0.5709840  )
         4           H   tau(   4) = (   0.0000000   0.5767560   0.9567840  )

     number of k points=   421  Methfessel-Paxton smearing, width (Ry)=  0.0100

     Number of k-points >= 100: set verbosity='high' to print them.

     Dense  grid:   238659 G-vectors     FFT dimensions: (  48,  48, 243)

     Smooth grid:    84483 G-vectors     FFT dimensions: (  36,  36, 180)

     Estimated max dynamical RAM per process >       1.42 GB

     Initial potential from superposition of free atoms

     starting charge    9.99886, renormalised to   10.00000

     negative rho (up, down):  2.044E-05 0.000E+00
     Starting wfcs are   10 randomized atomic wfcs
     Checking if some PAW data can be deallocated... 

     total cpu time spent up to now is       43.9 secs

     Self-consistent Calculation

     iteration #  1     ecut=    50.00 Ry     beta= 0.70
     Davidson diagonalization with overlap
     ethr =  1.00E-02,  avg # of iterations =  3.6

     negative rho (up, down):  3.868E-06 0.000E+00

     total cpu time spent up to now is      185.1 secs

     total energy              =     -25.15274787 Ry
     estimated scf accuracy    <       0.16623024 Ry

     iteration #  2     ecut=    50.00 Ry     beta= 0.70
     Davidson diagonalization with overlap
     ethr =  1.66E-03,  avg # of iterations =  1.3

     negative rho (up, down):  8.160E-06 0.000E+00

     total cpu time spent up to now is      280.9 secs

     total energy              =     -25.16278336 Ry
     estimated scf accuracy    <       0.00465303 Ry

     iteration #  3     ecut=    50.00 Ry     beta= 0.70
     Davidson diagonalization with overlap
     c_bands:  1 eigenvalues not converged
     c_bands:  1 eigenvalues not converged
     c_bands:  1 eigenvalues not converged
     c_bands:  1 eigenvalues not converged
     c_bands:  1 eigenvalues not converged
     ethr =  4.65E-05,  avg # of iterations =  9.4

     negative rho (up, down):  1.109E-05 0.000E+00

     total cpu time spent up to now is      472.1 secs

     total energy              =     -25.16360526 Ry
     estimated scf accuracy    <       0.00026667 Ry

     iteration #  4     ecut=    50.00 Ry     beta= 0.70
     Davidson diagonalization with overlap
     c_bands:  1 eigenvalues not converged
     c_bands:  1 eigenvalues not converged
     c_bands:  1 eigenvalues not converged
     c_bands:  1 eigenvalues not converged
     ethr =  2.67E-06,  avg # of iterations =  5.8

     negative rho (up, down):  1.361E-05 0.000E+00

     total cpu time spent up to now is      614.1 secs

     total energy              =     -25.16365013 Ry
     estimated scf accuracy    <       0.00002477 Ry

     iteration #  5     ecut=    50.00 Ry     beta= 0.70
     Davidson diagonalization with overlap
     ethr =  2.48E-07,  avg # of iterations =  1.7

     negative rho (up, down):  1.354E-05 0.000E+00

     total cpu time spent up to now is      715.2 secs

     total energy              =     -25.16365314 Ry
     estimated scf accuracy    <       0.00000119 Ry

     iteration #  6     ecut=    50.00 Ry     beta= 0.70
     Davidson diagonalization with overlap
     ethr =  1.19E-08,  avg # of iterations =  2.1

     negative rho (up, down):  1.365E-05 0.000E+00

     total cpu time spent up to now is      825.3 secs

     End of self-consistent calculation

     Number of k-points >= 100: set verbosity='high' to print the bands.

     the Fermi energy is    -2.7327 ev

!    total energy              =     -25.16365325 Ry
     estimated scf accuracy    <       0.00000033 Ry
     smearing contrib. (-TS)   =       0.00000000 Ry
     internal energy E=F+TS    =     -25.16365325 Ry

     The total energy is F=E-TS. E is the sum of the following terms:
     one-electron contribution =    -110.89186282 Ry
     hartree contribution      =      56.76202321 Ry
     xc contribution           =     -13.64812719 Ry
     ewald contribution        =      42.61459437 Ry
     one-center paw contrib.   =      -0.00028083 Ry

     convergence has been achieved in   6 iterations

     Writing output data file /home/jesus/Documentos/Nanociencia_DFT/silicano.save/
 
     init_run     :     41.52s CPU     42.69s WALL (       1 calls)
     electrons    :    775.17s CPU    781.62s WALL (       1 calls)

     Called by init_run:
     wfcinit      :     38.63s CPU     38.98s WALL (       1 calls)
     potinit      :      0.70s CPU      0.91s WALL (       1 calls)
     hinit0       :      0.95s CPU      1.10s WALL (       1 calls)

     Called by electrons:
     c_bands      :    660.43s CPU    662.18s WALL (       6 calls)
     sum_band     :    109.24s CPU    111.62s WALL (       6 calls)
     v_of_rho     :      1.63s CPU      1.89s WALL (       7 calls)
     newd         :      4.35s CPU      6.67s WALL (       7 calls)
     PAW_pot      :      0.01s CPU      0.05s WALL (       7 calls)
     mix_rho      :      0.20s CPU      0.29s WALL (       6 calls)

     Called by c_bands:
     init_us_2    :     20.08s CPU     20.20s WALL (    5473 calls)
     cegterg      :    576.31s CPU    577.95s WALL (    2526 calls)

     Called by *egterg:
     cdiaghg      :      1.95s CPU      2.04s WALL (   12593 calls)
     h_psi        :    551.06s CPU    552.59s WALL (   13014 calls)
     s_psi        :     16.39s CPU     16.46s WALL (   13014 calls)
     g_psi        :      1.70s CPU      1.72s WALL (   10067 calls)

     Called by h_psi:
     h_psi:calbec :     17.54s CPU     17.57s WALL (   13014 calls)
     vloc_psi     :    514.89s CPU    516.33s WALL (   13014 calls)
     add_vuspsi   :     16.37s CPU     16.43s WALL (   13014 calls)

     General routines
     calbec       :     21.93s CPU     22.01s WALL (   15540 calls)
     fft          :      0.73s CPU      0.88s WALL (      89 calls)
     ffts         :      0.04s CPU      0.04s WALL (      13 calls)
     fftw         :    501.23s CPU    502.63s WALL (  167580 calls)
     interpolate  :      0.11s CPU      0.11s WALL (       7 calls)
 
     Parallel routines
 
     PWSCF        :  13m38.44s CPU  13m57.79s WALL

 
   This run was terminated on:  22:20:21  30Mar2021            

=------------------------------------------------------------------------------=
   JOB DONE.
=------------------------------------------------------------------------------=
