
     Program PWSCF v.6.6 starts on 30Mar2021 at 23: 9:17 

     This program is part of the open-source Quantum ESPRESSO suite
     for quantum simulation of materials; please cite
         "P. Giannozzi et al., J. Phys.:Condens. Matter 21 395502 (2009);
         "P. Giannozzi et al., J. Phys.:Condens. Matter 29 465901 (2017);
          URL http://www.quantum-espresso.org", 
     in publications or presentations arising from this work. More details at
     http://www.quantum-espresso.org/quote

     Parallel version (MPI), running on     1 processors

     MPI processes distributed on     1 nodes
     Fft bands division:     nmany     =       1
     Waiting for input...
     Reading input from standard input
Warning: card &CELL ignored
Warning: card   CELL_DYNAMICS='BFGS', ignored
Warning: card   CELL_DOFREE='ALL', ignored
Warning: card / ignored

     Current dimensions of program PWSCF are:
     Max number of different atomic species (ntypx) = 10
     Max number of k-points (npk) =  40000
     Max angular momentum in pseudopotentials (lmaxx) =  3
     file H.pbe-kjpaw_psl.1.0.0.UPF: wavefunction(s)  1S renormalized

     Subspace diagonalization in iterative solution of the eigenvalue problem:
     a serial algorithm will be used

     Message from routine setup:
     using ibrav=0 with symmetry is DISCOURAGED, use correct ibrav instead
 
     G-vector sticks info
     --------------------
     sticks:   dense  smooth     PW     G-vecs:    dense   smooth      PW
     Sum        1345     673    211               203833    72185   12829
 


     bravais-lattice index     =            0
     lattice parameter (alat)  =       7.3457  a.u.
     unit-cell volume          =    1765.6965 (a.u.)^3
     number of atoms/cell      =            4
     number of atomic types    =            2
     number of electrons       =        10.00
     number of Kohn-Sham states=            9
     kinetic-energy cutoff     =      45.0000  Ry
     charge density cutoff     =     360.0000  Ry
     convergence threshold     =      1.0E-06
     mixing beta               =       0.7000
     number of iterations used =            8  plain     mixing
     Exchange-correlation= SLA PW PBX PBC
                           (   1   4   3   4   0   0   0)

     celldm(1)=   7.345687  celldm(2)=   0.000000  celldm(3)=   0.000000
     celldm(4)=   0.000000  celldm(5)=   0.000000  celldm(6)=   0.000000

     crystal axes: (cart. coord. in units of alat)
               a(1) = (   0.500000   0.866000   0.000000 )  
               a(2) = (  -0.500000   0.866000   0.000000 )  
               a(3) = (   0.000000   0.000000   5.144000 )  

     reciprocal axes: (cart. coord. in units 2 pi/alat)
               b(1) = (  1.000000  0.577367  0.000000 )  
               b(2) = ( -1.000000  0.577367  0.000000 )  
               b(3) = (  0.000000  0.000000  0.194401 )  


     PseudoPot. # 1 for Si read from file:
     /home/jesus/Nanociencia_DFT/pseudopotenciales/Si.pbe-n-rrkjus_psl.1.0.0.UPF
     MD5 check sum: fa25574f73a70a4139f2adfbefec430c
     Pseudo is Ultrasoft + core correction, Zval =  4.0
     Generated using "atomic" code by A. Dal Corso v.6.3
     Using radial grid of 1141 points,  6 beta functions with: 
                l(1) =   0
                l(2) =   0
                l(3) =   1
                l(4) =   1
                l(5) =   2
                l(6) =   2
     Q(r) pseudized with 0 coefficients 


     PseudoPot. # 2 for H  read from file:
     /home/jesus/Nanociencia_DFT/pseudopotenciales/H.pbe-kjpaw_psl.1.0.0.UPF
     MD5 check sum: d81a744832360e4a8af0b0b5b123bc2a
     Pseudo is Projector augmented-wave, Zval =  1.0
     Generated using "atomic" code by A. Dal Corso v.6.3MaX
     Shape of augmentation charge: PSQ
     Using radial grid of  929 points,  2 beta functions with: 
                l(1) =   0
                l(2) =   0
     Q(r) pseudized with 0 coefficients 


     atomic species   valence    mass     pseudopotential
        Si             4.00    28.08550     Si( 1.00)
        H              1.00     1.00800     H ( 1.00)

      2 Sym. Ops. (no inversion) found



   Cartesian axes

     site n.     atom                  positions (alat units)
         1           H   tau(   1) = (   0.0000000   0.0000000   0.0000000  )
         2           Si  tau(   2) = (   0.0000000   0.0000000   0.3858000  )
         3           Si  tau(   3) = (   0.0000000   0.5767560   0.5709840  )
         4           H   tau(   4) = (   0.0000000   0.5767560   0.9567840  )

     number of k points=   421  Methfessel-Paxton smearing, width (Ry)=  0.0100

     Number of k-points >= 100: set verbosity='high' to print them.

     Dense  grid:   203833 G-vectors     FFT dimensions: (  45,  45, 240)

     Smooth grid:    72185 G-vectors     FFT dimensions: (  32,  32, 162)

     Estimated max dynamical RAM per process >       1.21 GB

     Initial potential from superposition of free atoms

     starting charge    9.99886, renormalised to   10.00000

     negative rho (up, down):  1.952E-05 0.000E+00
     Starting wfcs are   10 randomized atomic wfcs
     Checking if some PAW data can be deallocated... 

     total cpu time spent up to now is       26.3 secs

     Self-consistent Calculation

     iteration #  1     ecut=    45.00 Ry     beta= 0.70
     Davidson diagonalization with overlap
     ethr =  1.00E-02,  avg # of iterations =  3.6

     negative rho (up, down):  4.915E-06 0.000E+00

     total cpu time spent up to now is      111.7 secs

     total energy              =     -25.15252231 Ry
     estimated scf accuracy    <       0.16617386 Ry

     iteration #  2     ecut=    45.00 Ry     beta= 0.70
     Davidson diagonalization with overlap
     ethr =  1.66E-03,  avg # of iterations =  1.3

     negative rho (up, down):  1.063E-05 0.000E+00

     total cpu time spent up to now is      170.7 secs

     total energy              =     -25.16254122 Ry
     estimated scf accuracy    <       0.00464766 Ry

     iteration #  3     ecut=    45.00 Ry     beta= 0.70
     Davidson diagonalization with overlap
     c_bands:  1 eigenvalues not converged
     c_bands:  1 eigenvalues not converged
     ethr =  4.65E-05,  avg # of iterations =  9.4

     negative rho (up, down):  1.406E-05 0.000E+00

     total cpu time spent up to now is      283.9 secs

     total energy              =     -25.16335633 Ry
     estimated scf accuracy    <       0.00026454 Ry

     iteration #  4     ecut=    45.00 Ry     beta= 0.70
     Davidson diagonalization with overlap
     c_bands:  1 eigenvalues not converged
     c_bands:  1 eigenvalues not converged
     c_bands:  1 eigenvalues not converged
     c_bands:  1 eigenvalues not converged
     ethr =  2.65E-06,  avg # of iterations =  5.9

     negative rho (up, down):  1.682E-05 0.000E+00

     total cpu time spent up to now is      369.1 secs

     total energy              =     -25.16340079 Ry
     estimated scf accuracy    <       0.00002461 Ry

     iteration #  5     ecut=    45.00 Ry     beta= 0.70
     Davidson diagonalization with overlap
     ethr =  2.46E-07,  avg # of iterations =  1.7

     negative rho (up, down):  1.679E-05 0.000E+00

     total cpu time spent up to now is      430.1 secs

     total energy              =     -25.16340379 Ry
     estimated scf accuracy    <       0.00000101 Ry

     iteration #  6     ecut=    45.00 Ry     beta= 0.70
     Davidson diagonalization with overlap
     ethr =  1.01E-08,  avg # of iterations =  2.1

     negative rho (up, down):  1.691E-05 0.000E+00

     total cpu time spent up to now is      498.5 secs

     End of self-consistent calculation

     Number of k-points >= 100: set verbosity='high' to print the bands.

     the Fermi energy is    -2.7278 ev

!    total energy              =     -25.16340404 Ry
     estimated scf accuracy    <       0.00000010 Ry
     smearing contrib. (-TS)   =       0.00000000 Ry
     internal energy E=F+TS    =     -25.16340404 Ry

     The total energy is F=E-TS. E is the sum of the following terms:
     one-electron contribution =    -110.89111140 Ry
     hartree contribution      =      56.76127724 Ry
     xc contribution           =     -13.64788290 Ry
     ewald contribution        =      42.61459437 Ry
     one-center paw contrib.   =      -0.00028135 Ry

     convergence has been achieved in   6 iterations

     Writing output data file /home/jesus/Documentos/Nanociencia_DFT/silicano.save/
 
     init_run     :     24.51s CPU     25.48s WALL (       1 calls)
     electrons    :    466.57s CPU    472.22s WALL (       1 calls)

     Called by init_run:
     wfcinit      :     21.90s CPU     22.43s WALL (       1 calls)
     potinit      :      0.57s CPU      0.69s WALL (       1 calls)
     hinit0       :      0.86s CPU      0.89s WALL (       1 calls)

     Called by electrons:
     c_bands      :    398.86s CPU    400.73s WALL (       6 calls)
     sum_band     :     63.33s CPU     65.27s WALL (       6 calls)
     v_of_rho     :      1.39s CPU      1.57s WALL (       7 calls)
     newd         :      3.50s CPU      5.47s WALL (       7 calls)
     PAW_pot      :      0.01s CPU      0.01s WALL (       7 calls)
     mix_rho      :      0.16s CPU      0.16s WALL (       6 calls)

     Called by c_bands:
     init_us_2    :     16.69s CPU     16.87s WALL (    5473 calls)
     cegterg      :    327.92s CPU    329.59s WALL (    2526 calls)

     Called by *egterg:
     cdiaghg      :      1.90s CPU      1.92s WALL (   12605 calls)
     h_psi        :    297.27s CPU    299.05s WALL (   13026 calls)
     s_psi        :     13.50s CPU     13.60s WALL (   13026 calls)
     g_psi        :      1.42s CPU      1.43s WALL (   10079 calls)

     Called by h_psi:
     h_psi:calbec :     14.75s CPU     14.82s WALL (   13026 calls)
     vloc_psi     :    267.26s CPU    268.86s WALL (   13026 calls)
     add_vuspsi   :     13.47s CPU     13.57s WALL (   13026 calls)

     General routines
     calbec       :     18.53s CPU     18.66s WALL (   15552 calls)
     fft          :      0.62s CPU      0.65s WALL (      89 calls)
     ffts         :      0.02s CPU      0.08s WALL (      13 calls)
     fftw         :    261.61s CPU    263.31s WALL (  168458 calls)
     interpolate  :      0.08s CPU      0.14s WALL (       7 calls)
 
     Parallel routines
 
     PWSCF        :   8m12.66s CPU   8m21.69s WALL

 
   This run was terminated on:  23:17:39  30Mar2021            

=------------------------------------------------------------------------------=
   JOB DONE.
=------------------------------------------------------------------------------=
