
     Program PWSCF v.6.6 starts on 30Mar2021 at 22:52:21 

     This program is part of the open-source Quantum ESPRESSO suite
     for quantum simulation of materials; please cite
         "P. Giannozzi et al., J. Phys.:Condens. Matter 21 395502 (2009);
         "P. Giannozzi et al., J. Phys.:Condens. Matter 29 465901 (2017);
          URL http://www.quantum-espresso.org", 
     in publications or presentations arising from this work. More details at
     http://www.quantum-espresso.org/quote

     Parallel version (MPI), running on     1 processors

     MPI processes distributed on     1 nodes
     Fft bands division:     nmany     =       1
     Waiting for input...
     Reading input from standard input
Warning: card &CELL ignored
Warning: card   CELL_DYNAMICS='BFGS', ignored
Warning: card   CELL_DOFREE='ALL', ignored
Warning: card / ignored

     Current dimensions of program PWSCF are:
     Max number of different atomic species (ntypx) = 10
     Max number of k-points (npk) =  40000
     Max angular momentum in pseudopotentials (lmaxx) =  3
     file H.pbe-kjpaw_psl.1.0.0.UPF: wavefunction(s)  1S renormalized

     Subspace diagonalization in iterative solution of the eigenvalue problem:
     a serial algorithm will be used

     Message from routine setup:
     using ibrav=0 with symmetry is DISCOURAGED, use correct ibrav instead
 
     G-vector sticks info
     --------------------
     sticks:   dense  smooth     PW     G-vecs:    dense   smooth      PW
     Sum         889     439    151               110743    39185    7569
 


     bravais-lattice index     =            0
     lattice parameter (alat)  =       7.3457  a.u.
     unit-cell volume          =    1765.6965 (a.u.)^3
     number of atoms/cell      =            4
     number of atomic types    =            2
     number of electrons       =        10.00
     number of Kohn-Sham states=            9
     kinetic-energy cutoff     =      30.0000  Ry
     charge density cutoff     =     240.0000  Ry
     convergence threshold     =      1.0E-06
     mixing beta               =       0.7000
     number of iterations used =            8  plain     mixing
     Exchange-correlation= SLA PW PBX PBC
                           (   1   4   3   4   0   0   0)

     celldm(1)=   7.345687  celldm(2)=   0.000000  celldm(3)=   0.000000
     celldm(4)=   0.000000  celldm(5)=   0.000000  celldm(6)=   0.000000

     crystal axes: (cart. coord. in units of alat)
               a(1) = (   0.500000   0.866000   0.000000 )  
               a(2) = (  -0.500000   0.866000   0.000000 )  
               a(3) = (   0.000000   0.000000   5.144000 )  

     reciprocal axes: (cart. coord. in units 2 pi/alat)
               b(1) = (  1.000000  0.577367  0.000000 )  
               b(2) = ( -1.000000  0.577367  0.000000 )  
               b(3) = (  0.000000  0.000000  0.194401 )  


     PseudoPot. # 1 for Si read from file:
     /home/jesus/Nanociencia_DFT/pseudopotenciales/Si.pbe-n-rrkjus_psl.1.0.0.UPF
     MD5 check sum: fa25574f73a70a4139f2adfbefec430c
     Pseudo is Ultrasoft + core correction, Zval =  4.0
     Generated using "atomic" code by A. Dal Corso v.6.3
     Using radial grid of 1141 points,  6 beta functions with: 
                l(1) =   0
                l(2) =   0
                l(3) =   1
                l(4) =   1
                l(5) =   2
                l(6) =   2
     Q(r) pseudized with 0 coefficients 


     PseudoPot. # 2 for H  read from file:
     /home/jesus/Nanociencia_DFT/pseudopotenciales/H.pbe-kjpaw_psl.1.0.0.UPF
     MD5 check sum: d81a744832360e4a8af0b0b5b123bc2a
     Pseudo is Projector augmented-wave, Zval =  1.0
     Generated using "atomic" code by A. Dal Corso v.6.3MaX
     Shape of augmentation charge: PSQ
     Using radial grid of  929 points,  2 beta functions with: 
                l(1) =   0
                l(2) =   0
     Q(r) pseudized with 0 coefficients 


     atomic species   valence    mass     pseudopotential
        Si             4.00    28.08550     Si( 1.00)
        H              1.00     1.00800     H ( 1.00)

      2 Sym. Ops. (no inversion) found



   Cartesian axes

     site n.     atom                  positions (alat units)
         1           H   tau(   1) = (   0.0000000   0.0000000   0.0000000  )
         2           Si  tau(   2) = (   0.0000000   0.0000000   0.3858000  )
         3           Si  tau(   3) = (   0.0000000   0.5767560   0.5709840  )
         4           H   tau(   4) = (   0.0000000   0.5767560   0.9567840  )

     number of k points=   421  Methfessel-Paxton smearing, width (Ry)=  0.0100

     Number of k-points >= 100: set verbosity='high' to print them.

     Dense  grid:   110743 G-vectors     FFT dimensions: (  40,  40, 192)

     Smooth grid:    39185 G-vectors     FFT dimensions: (  25,  25, 135)

     Estimated max dynamical RAM per process >     677.05 MB

     Initial potential from superposition of free atoms

     starting charge    9.99886, renormalised to   10.00000

     negative rho (up, down):  5.117E-05 0.000E+00
     Starting wfcs are   10 randomized atomic wfcs
     Checking if some PAW data can be deallocated... 

     total cpu time spent up to now is       14.8 secs

     Self-consistent Calculation

     iteration #  1     ecut=    30.00 Ry     beta= 0.70
     Davidson diagonalization with overlap
     ethr =  1.00E-02,  avg # of iterations =  3.5

     negative rho (up, down):  5.533E-05 0.000E+00

     total cpu time spent up to now is       61.2 secs

     total energy              =     -25.14867730 Ry
     estimated scf accuracy    <       0.16476655 Ry

     iteration #  2     ecut=    30.00 Ry     beta= 0.70
     Davidson diagonalization with overlap
     ethr =  1.65E-03,  avg # of iterations =  1.3

     negative rho (up, down):  7.291E-05 0.000E+00

     total cpu time spent up to now is       93.3 secs

     total energy              =     -25.15849835 Ry
     estimated scf accuracy    <       0.00459452 Ry

     iteration #  3     ecut=    30.00 Ry     beta= 0.70
     Davidson diagonalization with overlap
     ethr =  4.59E-05,  avg # of iterations =  9.5

     negative rho (up, down):  7.575E-05 0.000E+00

     total cpu time spent up to now is      157.3 secs

     total energy              =     -25.15927675 Ry
     estimated scf accuracy    <       0.00025144 Ry

     iteration #  4     ecut=    30.00 Ry     beta= 0.70
     Davidson diagonalization with overlap
     c_bands:  1 eigenvalues not converged
     c_bands:  1 eigenvalues not converged
     ethr =  2.51E-06,  avg # of iterations =  6.0

     negative rho (up, down):  7.881E-05 0.000E+00

     total cpu time spent up to now is      204.6 secs

     total energy              =     -25.15931884 Ry
     estimated scf accuracy    <       0.00002385 Ry

     iteration #  5     ecut=    30.00 Ry     beta= 0.70
     Davidson diagonalization with overlap
     ethr =  2.39E-07,  avg # of iterations =  1.7

     negative rho (up, down):  7.884E-05 0.000E+00

     total cpu time spent up to now is      238.0 secs

     total energy              =     -25.15932178 Ry
     estimated scf accuracy    <       0.00000125 Ry

     iteration #  6     ecut=    30.00 Ry     beta= 0.70
     Davidson diagonalization with overlap
     c_bands:  1 eigenvalues not converged
     ethr =  1.25E-08,  avg # of iterations =  2.1

     negative rho (up, down):  7.906E-05 0.000E+00

     total cpu time spent up to now is      274.0 secs

     End of self-consistent calculation

     Number of k-points >= 100: set verbosity='high' to print the bands.

     the Fermi energy is    -2.7256 ev

!    total energy              =     -25.15932189 Ry
     estimated scf accuracy    <       0.00000037 Ry
     smearing contrib. (-TS)   =       0.00000000 Ry
     internal energy E=F+TS    =     -25.15932189 Ry

     The total energy is F=E-TS. E is the sum of the following terms:
     one-electron contribution =    -110.88872772 Ry
     hartree contribution      =      56.76094021 Ry
     xc contribution           =     -13.64584699 Ry
     ewald contribution        =      42.61459437 Ry
     one-center paw contrib.   =      -0.00028176 Ry

     convergence has been achieved in   6 iterations

     Writing output data file /home/jesus/Documentos/Nanociencia_DFT/silicano.save/
 
     init_run     :     13.49s CPU     13.97s WALL (       1 calls)
     electrons    :    256.27s CPU    259.29s WALL (       1 calls)

     Called by init_run:
     wfcinit      :     12.00s CPU     12.22s WALL (       1 calls)
     potinit      :      0.34s CPU      0.36s WALL (       1 calls)
     hinit0       :      0.59s CPU      0.63s WALL (       1 calls)

     Called by electrons:
     c_bands      :    219.95s CPU    221.11s WALL (       6 calls)
     sum_band     :     33.87s CPU     34.80s WALL (       6 calls)
     v_of_rho     :      0.85s CPU      0.89s WALL (       7 calls)
     newd         :      1.82s CPU      2.89s WALL (       7 calls)
     PAW_pot      :      0.01s CPU      0.01s WALL (       7 calls)
     mix_rho      :      0.09s CPU      0.09s WALL (       6 calls)

     Called by c_bands:
     init_us_2    :      9.11s CPU      9.19s WALL (    5473 calls)
     cegterg      :    181.23s CPU    182.22s WALL (    2526 calls)

     Called by *egterg:
     cdiaghg      :      1.90s CPU      1.92s WALL (   12657 calls)
     h_psi        :    164.22s CPU    165.19s WALL (   13078 calls)
     s_psi        :      7.22s CPU      7.28s WALL (   13078 calls)
     g_psi        :      0.77s CPU      0.78s WALL (   10131 calls)

     Called by h_psi:
     h_psi:calbec :      7.89s CPU      7.93s WALL (   13078 calls)
     vloc_psi     :    147.66s CPU    148.53s WALL (   13078 calls)
     add_vuspsi   :      7.72s CPU      7.77s WALL (   13078 calls)

     General routines
     calbec       :      9.92s CPU      9.98s WALL (   15604 calls)
     fft          :      0.33s CPU      0.35s WALL (      89 calls)
     ffts         :      0.01s CPU      0.01s WALL (      13 calls)
     fftw         :    151.22s CPU    152.08s WALL (  167252 calls)
     interpolate  :      0.05s CPU      0.05s WALL (       7 calls)
 
     Parallel routines
 
     PWSCF        :   4m30.77s CPU   4m34.80s WALL

 
   This run was terminated on:  22:56:56  30Mar2021            

=------------------------------------------------------------------------------=
   JOB DONE.
=------------------------------------------------------------------------------=
