
     Program PWSCF v.6.6 starts on 18Mar2021 at 23:15: 1 

     This program is part of the open-source Quantum ESPRESSO suite
     for quantum simulation of materials; please cite
         "P. Giannozzi et al., J. Phys.:Condens. Matter 21 395502 (2009);
         "P. Giannozzi et al., J. Phys.:Condens. Matter 29 465901 (2017);
          URL http://www.quantum-espresso.org", 
     in publications or presentations arising from this work. More details at
     http://www.quantum-espresso.org/quote

     Parallel version (MPI), running on     1 processors

     MPI processes distributed on     1 nodes
     Fft bands division:     nmany     =       1
     Waiting for input...
     Reading input from standard input
Warning: card &CELL ignored
Warning: card   CELL_DYNAMICS='BFGS', ignored
Warning: card   CELL_DOFREE='ALL', ignored
Warning: card / ignored

     Current dimensions of program PWSCF are:
     Max number of different atomic species (ntypx) = 10
     Max number of k-points (npk) =  40000
     Max angular momentum in pseudopotentials (lmaxx) =  3

     Subspace diagonalization in iterative solution of the eigenvalue problem:
     a serial algorithm will be used

 
     G-vector sticks info
     --------------------
     sticks:   dense  smooth     PW     G-vecs:    dense   smooth      PW
     Sum         889     439    139                66219    23461    3865
 


     bravais-lattice index     =            4
     lattice parameter (alat)  =       7.3321  a.u.
     unit-cell volume          =    1055.7764 (a.u.)^3
     number of atoms/cell      =            2
     number of atomic types    =            1
     number of electrons       =         8.00
     number of Kohn-Sham states=            8
     kinetic-energy cutoff     =      30.0000  Ry
     charge density cutoff     =     240.0000  Ry
     convergence threshold     =      1.0E-06
     mixing beta               =       0.7000
     number of iterations used =            8  plain     mixing
     Exchange-correlation= PBE
                           (   1   4   3   4   0   0   0)

     celldm(1)=   7.332137  celldm(2)=   0.000000  celldm(3)=   3.092784
     celldm(4)=   0.000000  celldm(5)=   0.000000  celldm(6)=   0.000000

     crystal axes: (cart. coord. in units of alat)
               a(1) = (   1.000000   0.000000   0.000000 )  
               a(2) = (  -0.500000   0.866025   0.000000 )  
               a(3) = (   0.000000   0.000000   3.092784 )  

     reciprocal axes: (cart. coord. in units 2 pi/alat)
               b(1) = (  1.000000  0.577350  0.000000 )  
               b(2) = (  0.000000  1.154701  0.000000 )  
               b(3) = (  0.000000  0.000000  0.323333 )  


     PseudoPot. # 1 for Si read from file:
     /home/jesus/Documentos/Nanociencia_DFT/pseudopotenciales/Si.pbe-n-rrkjus_psl.1.0.0.UPF
     MD5 check sum: fa25574f73a70a4139f2adfbefec430c
     Pseudo is Ultrasoft + core correction, Zval =  4.0
     Generated using "atomic" code by A. Dal Corso v.6.3
     Using radial grid of 1141 points,  6 beta functions with: 
                l(1) =   0
                l(2) =   0
                l(3) =   1
                l(4) =   1
                l(5) =   2
                l(6) =   2
     Q(r) pseudized with 0 coefficients 


     atomic species   valence    mass     pseudopotential
        Si             4.00    28.08550     Si( 1.00)

     Starting magnetic structure 
     atomic species   magnetization
        Si           1.000

      6 Sym. Ops. (no inversion) found



   Cartesian axes

     site n.     atom                  positions (alat units)
         1           Si  tau(   1) = (  -0.0000000   0.5773503   1.5209498  )
         2           Si  tau(   2) = (   0.5000000   0.2886751   1.6491100  )

     number of k points=   444  Methfessel-Paxton smearing, width (Ry)=  0.0100

     Number of k-points >= 100: set verbosity='high' to print them.

     Dense  grid:    66219 G-vectors     FFT dimensions: (  40,  40, 120)

     Smooth grid:    23461 G-vectors     FFT dimensions: (  25,  25,  80)

     Estimated max dynamical RAM per process >     579.71 MB
     Generating pointlists ...
     new r_m :   0.2440 (alat units)  1.7887 (a.u.) for type    1

     Initial potential from superposition of free atoms

     starting charge    7.99888, renormalised to    8.00000
     Starting wfcs are    8 randomized atomic wfcs

     total cpu time spent up to now is       17.9 secs

     Self-consistent Calculation

     iteration #  1     ecut=    30.00 Ry     beta= 0.70
     Davidson diagonalization with overlap
     ethr =  1.00E-02,  avg # of iterations =  5.1

     total cpu time spent up to now is       73.9 secs

     total energy              =     -22.44164742 Ry
     estimated scf accuracy    <       0.14741766 Ry

     total magnetization       =     2.55 Bohr mag/cell
     absolute magnetization    =     2.55 Bohr mag/cell

     iteration #  2     ecut=    30.00 Ry     beta= 0.70
     Davidson diagonalization with overlap
     ethr =  1.84E-03,  avg # of iterations =  3.1

     total cpu time spent up to now is      119.6 secs

     total energy              =     -22.68666766 Ry
     estimated scf accuracy    <       0.03340554 Ry

     total magnetization       =     0.80 Bohr mag/cell
     absolute magnetization    =     0.83 Bohr mag/cell

     iteration #  3     ecut=    30.00 Ry     beta= 0.70
     Davidson diagonalization with overlap
     ethr =  4.18E-04,  avg # of iterations =  2.9

     total cpu time spent up to now is      160.7 secs

     total energy              =     -22.73355148 Ry
     estimated scf accuracy    <       0.00698250 Ry

     total magnetization       =     0.27 Bohr mag/cell
     absolute magnetization    =     0.33 Bohr mag/cell

     iteration #  4     ecut=    30.00 Ry     beta= 0.70
     Davidson diagonalization with overlap
     ethr =  8.73E-05,  avg # of iterations =  5.5

     total cpu time spent up to now is      212.5 secs

     total energy              =     -22.74513723 Ry
     estimated scf accuracy    <       0.00042691 Ry

     total magnetization       =     0.00 Bohr mag/cell
     absolute magnetization    =     0.05 Bohr mag/cell

     iteration #  5     ecut=    30.00 Ry     beta= 0.70
     Davidson diagonalization with overlap
     c_bands:  1 eigenvalues not converged
     c_bands:  1 eigenvalues not converged
     c_bands:  1 eigenvalues not converged
     c_bands:  1 eigenvalues not converged
     c_bands:  1 eigenvalues not converged
     c_bands:  1 eigenvalues not converged
     c_bands:  1 eigenvalues not converged
     c_bands:  1 eigenvalues not converged
     c_bands:  1 eigenvalues not converged
     c_bands:  1 eigenvalues not converged
     c_bands:  1 eigenvalues not converged
     c_bands:  1 eigenvalues not converged
     c_bands:  1 eigenvalues not converged
     c_bands:  1 eigenvalues not converged
     c_bands:  1 eigenvalues not converged
     c_bands:  1 eigenvalues not converged
     c_bands:  1 eigenvalues not converged
     c_bands:  1 eigenvalues not converged
     c_bands:  2 eigenvalues not converged
     c_bands:  1 eigenvalues not converged
     c_bands:  1 eigenvalues not converged
     c_bands:  1 eigenvalues not converged
     c_bands:  1 eigenvalues not converged
     c_bands:  1 eigenvalues not converged
     c_bands:  1 eigenvalues not converged
     c_bands:  1 eigenvalues not converged
     ethr =  5.34E-06,  avg # of iterations =  7.7

     total cpu time spent up to now is      282.6 secs

     total energy              =     -22.74546567 Ry
     estimated scf accuracy    <       0.00005085 Ry

     total magnetization       =     0.00 Bohr mag/cell
     absolute magnetization    =     0.03 Bohr mag/cell

     iteration #  6     ecut=    30.00 Ry     beta= 0.70
     Davidson diagonalization with overlap
     c_bands:  1 eigenvalues not converged
     c_bands:  1 eigenvalues not converged
     c_bands:  1 eigenvalues not converged
     c_bands:  1 eigenvalues not converged
     c_bands:  1 eigenvalues not converged
     ethr =  6.36E-07,  avg # of iterations =  3.3

     total cpu time spent up to now is      330.2 secs

     total energy              =     -22.74556828 Ry
     estimated scf accuracy    <       0.00005412 Ry

     total magnetization       =     0.00 Bohr mag/cell
     absolute magnetization    =     0.01 Bohr mag/cell

     iteration #  7     ecut=    30.00 Ry     beta= 0.70
     Davidson diagonalization with overlap
     c_bands:  1 eigenvalues not converged
     ethr =  6.36E-07,  avg # of iterations =  2.1

     total cpu time spent up to now is      370.9 secs

     total energy              =     -22.74559382 Ry
     estimated scf accuracy    <       0.00000508 Ry

     total magnetization       =     0.00 Bohr mag/cell
     absolute magnetization    =     0.00 Bohr mag/cell

     iteration #  8     ecut=    30.00 Ry     beta= 0.70
     Davidson diagonalization with overlap
     ethr =  6.35E-08,  avg # of iterations =  2.0
 
     Magnetic moment per site:
     atom:    1    charge:    1.6603    magn:    0.0001    constr:    0.0000
     atom:    2    charge:    1.6603    magn:    0.0001    constr:    0.0000

     total cpu time spent up to now is      408.7 secs

     End of self-consistent calculation

     Number of k-points >= 100: set verbosity='high' to print the bands.

     the Fermi energy is    -1.7717 ev

!    total energy              =     -22.74559482 Ry
     estimated scf accuracy    <       0.00000017 Ry
     smearing contrib. (-TS)   =       0.00001909 Ry
     internal energy E=F+TS    =     -22.74561391 Ry

     The total energy is F=E-TS. E is the sum of the following terms:
     one-electron contribution =     -37.55321991 Ry
     hartree contribution      =      20.04933227 Ry
     xc contribution           =     -12.12496097 Ry
     ewald contribution        =       6.88323470 Ry

     total magnetization       =     0.00 Bohr mag/cell
     absolute magnetization    =     0.00 Bohr mag/cell

     convergence has been achieved in   8 iterations

     Writing output data file /home/jesus/Documentos/Nanociencia_DFT/test.save/
 
     init_run     :     13.38s CPU     16.70s WALL (       1 calls)
     electrons    :    380.40s CPU    391.18s WALL (       1 calls)

     Called by init_run:
     wfcinit      :     11.85s CPU     12.77s WALL (       1 calls)
     potinit      :      0.26s CPU      0.32s WALL (       1 calls)
     hinit0       :      0.41s CPU      0.73s WALL (       1 calls)

     Called by electrons:
     c_bands      :    326.06s CPU    329.52s WALL (       8 calls)
     sum_band     :     50.82s CPU     55.55s WALL (       8 calls)
     v_of_rho     :      1.87s CPU      2.08s WALL (       9 calls)
     newd         :      2.01s CPU      4.54s WALL (       9 calls)
     mix_rho      :      0.19s CPU      1.34s WALL (       8 calls)

     Called by c_bands:
     init_us_2    :     13.70s CPU     13.87s WALL (   15096 calls)
     cegterg      :    260.73s CPU    263.67s WALL (    7104 calls)

     Called by *egterg:
     cdiaghg      :      4.61s CPU      5.00s WALL (   35294 calls)
     h_psi        :    230.25s CPU    232.86s WALL (   36182 calls)
     s_psi        :      9.37s CPU      9.48s WALL (   36182 calls)
     g_psi        :      1.21s CPU      1.23s WALL (   28190 calls)

     Called by h_psi:
     h_psi:calbec :     11.65s CPU     11.80s WALL (   36182 calls)
     vloc_psi     :    206.67s CPU    209.01s WALL (   36182 calls)
     add_vuspsi   :     10.52s CPU     10.65s WALL (   36182 calls)

     General routines
     calbec       :     14.63s CPU     14.83s WALL (   43286 calls)
     fft          :      0.59s CPU      0.83s WALL (     219 calls)
     ffts         :      0.02s CPU      0.02s WALL (      34 calls)
     fftw         :    211.68s CPU    214.01s WALL (  408606 calls)
     interpolate  :      0.08s CPU      0.09s WALL (      18 calls)
 
     Parallel routines
 
     PWSCF        :   6m34.90s CPU   6m53.13s WALL

 
   This run was terminated on:  23:21:54  18Mar2021            

=------------------------------------------------------------------------------=
   JOB DONE.
=------------------------------------------------------------------------------=
