
     Program PWSCF v.6.6 starts on 18Mar2021 at 23:24:48 

     This program is part of the open-source Quantum ESPRESSO suite
     for quantum simulation of materials; please cite
         "P. Giannozzi et al., J. Phys.:Condens. Matter 21 395502 (2009);
         "P. Giannozzi et al., J. Phys.:Condens. Matter 29 465901 (2017);
          URL http://www.quantum-espresso.org", 
     in publications or presentations arising from this work. More details at
     http://www.quantum-espresso.org/quote

     Parallel version (MPI), running on     1 processors

     MPI processes distributed on     1 nodes
     Fft bands division:     nmany     =       1
     Waiting for input...
     Reading input from standard input
Warning: card &IONS ignored
Warning: card   ION_DYNAMICS='BFGS', ignored
Warning: card / ignored
Warning: card &CELL ignored
Warning: card   CELL_DYNAMICS='BFGS', ignored
Warning: card   CELL_DOFREE='ALL', ignored
Warning: card / ignored

     Current dimensions of program PWSCF are:
     Max number of different atomic species (ntypx) = 10
     Max number of k-points (npk) =  40000
     Max angular momentum in pseudopotentials (lmaxx) =  3

     Atomic positions and unit cell read from directory:
     /home/jesus/Documentos/Nanociencia_DFT/test.save/
     Atomic positions from file used, from input discarded
 

     Subspace diagonalization in iterative solution of the eigenvalue problem:
     a serial algorithm will be used

 
     G-vector sticks info
     --------------------
     sticks:   dense  smooth     PW     G-vecs:    dense   smooth      PW
     Sum         889     439    139                66219    23461    3865
 


     bravais-lattice index     =            4
     lattice parameter (alat)  =       7.3321  a.u.
     unit-cell volume          =    1055.7764 (a.u.)^3
     number of atoms/cell      =            2
     number of atomic types    =            1
     number of electrons       =         8.00
     number of Kohn-Sham states=            8
     kinetic-energy cutoff     =      30.0000  Ry
     charge density cutoff     =     240.0000  Ry
     Exchange-correlation= PBE
                           (   1   4   3   4   0   0   0)

     celldm(1)=   7.332137  celldm(2)=   0.000000  celldm(3)=   3.092784
     celldm(4)=   0.000000  celldm(5)=   0.000000  celldm(6)=   0.000000

     crystal axes: (cart. coord. in units of alat)
               a(1) = (   1.000000   0.000000   0.000000 )  
               a(2) = (  -0.500000   0.866025   0.000000 )  
               a(3) = (   0.000000   0.000000   3.092784 )  

     reciprocal axes: (cart. coord. in units 2 pi/alat)
               b(1) = (  1.000000  0.577350  0.000000 )  
               b(2) = (  0.000000  1.154701  0.000000 )  
               b(3) = (  0.000000  0.000000  0.323333 )  


     PseudoPot. # 1 for Si read from file:
     /home/jesus/Documentos/Nanociencia_DFT/pseudopotenciales/Si.pbe-n-rrkjus_psl.1.0.0.UPF
     MD5 check sum: fa25574f73a70a4139f2adfbefec430c
     Pseudo is Ultrasoft + core correction, Zval =  4.0
     Generated using "atomic" code by A. Dal Corso v.6.3
     Using radial grid of 1141 points,  6 beta functions with: 
                l(1) =   0
                l(2) =   0
                l(3) =   1
                l(4) =   1
                l(5) =   2
                l(6) =   2
     Q(r) pseudized with 0 coefficients 


     atomic species   valence    mass     pseudopotential
        Si             4.00    28.08550     Si( 1.00)

     Starting magnetic structure 
     atomic species   magnetization
        Si           1.000

      6 Sym. Ops. (no inversion) found



   Cartesian axes

     site n.     atom                  positions (alat units)
         1           Si  tau(   1) = (  -0.0000000   0.5773503   1.5209498  )
         2           Si  tau(   2) = (   0.5000000   0.2886751   1.6491100  )

     number of k points=   444  Methfessel-Paxton smearing, width (Ry)=  0.0100

     Number of k-points >= 100: set verbosity='high' to print them.

     Dense  grid:    66219 G-vectors     FFT dimensions: (  40,  40, 120)

     Smooth grid:    23461 G-vectors     FFT dimensions: (  25,  25,  80)

     Estimated max dynamical RAM per process >     224.82 MB
     Generating pointlists ...
     new r_m :   0.2440 (alat units)  1.7887 (a.u.) for type    1

     The potential is recalculated from file :
     /home/jesus/Documentos/Nanociencia_DFT/test.save/charge-density

     Starting wfcs are    8 randomized atomic wfcs

     Band Structure Calculation
     Davidson diagonalization with overlap

     ethr =  1.25E-08,  avg # of iterations = 41.7

     total cpu time spent up to now is      344.5 secs

     End of band structure calculation

     Number of k-points >= 100: set verbosity='high' to print the bands.

     the Fermi energy is    -1.7742 ev
     (compare with:    -1.7717 eV, computed in scf)

     Writing output data file /home/jesus/Documentos/Nanociencia_DFT/test.save/
 
     init_run     :      1.08s CPU      1.68s WALL (       1 calls)
     electrons    :    336.35s CPU    340.49s WALL (       1 calls)

     Called by init_run:
     wfcinit      :      0.00s CPU      0.00s WALL (       1 calls)
     potinit      :      0.22s CPU      0.34s WALL (       1 calls)
     hinit0       :      0.34s CPU      0.65s WALL (       1 calls)

     Called by electrons:
     c_bands      :    336.35s CPU    340.48s WALL (       1 calls)
     v_of_rho     :      0.20s CPU      0.23s WALL (       1 calls)
     newd         :      0.17s CPU      0.28s WALL (       1 calls)

     Called by c_bands:
     init_us_2    :      0.82s CPU      0.91s WALL (     888 calls)
     cegterg      :    314.71s CPU    317.53s WALL (    2246 calls)

     Called by *egterg:
     cdiaghg      :      5.72s CPU      5.80s WALL (   37885 calls)
     h_psi        :    270.34s CPU    272.78s WALL (   40131 calls)
     s_psi        :     11.37s CPU     11.50s WALL (   40131 calls)
     g_psi        :      1.77s CPU      1.79s WALL (   36997 calls)

     Called by h_psi:
     h_psi:calbec :     13.72s CPU     13.84s WALL (   40131 calls)
     vloc_psi     :    242.43s CPU    244.63s WALL (   40131 calls)
     add_vuspsi   :     12.52s CPU     12.67s WALL (   40131 calls)

     General routines
     calbec       :     13.54s CPU     13.69s WALL (   40131 calls)
     fft          :      0.07s CPU      0.28s WALL (      23 calls)
     ffts         :      0.00s CPU      0.00s WALL (       2 calls)
     fftw         :    208.79s CPU    210.73s WALL (  354808 calls)
     interpolate  :      0.01s CPU      0.01s WALL (       2 calls)
     davcio       :      0.46s CPU      9.54s WALL (    1776 calls)
 
     Parallel routines
 
     PWSCF        :   5m39.83s CPU   6m 3.95s WALL

 
   This run was terminated on:  23:30:52  18Mar2021            

=------------------------------------------------------------------------------=
   JOB DONE.
=------------------------------------------------------------------------------=
