
     Program PWSCF v.6.6 starts on 15Mar2021 at 19:58:47 

     This program is part of the open-source Quantum ESPRESSO suite
     for quantum simulation of materials; please cite
         "P. Giannozzi et al., J. Phys.:Condens. Matter 21 395502 (2009);
         "P. Giannozzi et al., J. Phys.:Condens. Matter 29 465901 (2017);
          URL http://www.quantum-espresso.org", 
     in publications or presentations arising from this work. More details at
     http://www.quantum-espresso.org/quote

     Parallel version (MPI), running on     1 processors

     MPI processes distributed on     1 nodes
     Fft bands division:     nmany     =       1
     Waiting for input...
     Reading input from standard input
Warning: card &CELL ignored
Warning: card   CELL_DYNAMICS='BFGS', ignored
Warning: card   CELL_DOFREE='ALL', ignored
Warning: card / ignored

     Current dimensions of program PWSCF are:
     Max number of different atomic species (ntypx) = 10
     Max number of k-points (npk) =  40000
     Max angular momentum in pseudopotentials (lmaxx) =  3

     Subspace diagonalization in iterative solution of the eigenvalue problem:
     a serial algorithm will be used

 
     G-vector sticks info
     --------------------
     sticks:   dense  smooth     PW     G-vecs:    dense   smooth      PW
     Sum         859     433    139                16625     5961    1067
 


     bravais-lattice index     =            2
     lattice parameter (alat)  =      10.2045  a.u.
     unit-cell volume          =     265.6549 (a.u.)^3
     number of atoms/cell      =            2
     number of atomic types    =            1
     number of electrons       =         8.00
     number of Kohn-Sham states=            8
     kinetic-energy cutoff     =      30.0000  Ry
     charge density cutoff     =     240.0000  Ry
     convergence threshold     =      1.0E-06
     mixing beta               =       0.7000
     number of iterations used =            8  plain     mixing
     Exchange-correlation= PBE
                           (   1   4   3   4   0   0   0)

     celldm(1)=  10.204521  celldm(2)=   0.000000  celldm(3)=   0.000000
     celldm(4)=   0.000000  celldm(5)=   0.000000  celldm(6)=   0.000000

     crystal axes: (cart. coord. in units of alat)
               a(1) = (  -0.500000   0.000000   0.500000 )  
               a(2) = (   0.000000   0.500000   0.500000 )  
               a(3) = (  -0.500000   0.500000   0.000000 )  

     reciprocal axes: (cart. coord. in units 2 pi/alat)
               b(1) = ( -1.000000 -1.000000  1.000000 )  
               b(2) = (  1.000000  1.000000  1.000000 )  
               b(3) = ( -1.000000  1.000000 -1.000000 )  


     PseudoPot. # 1 for Si read from file:
     /home/jesus/Documentos/Nanociencia_DFT/pseudopotenciales/Si.pbe-n-rrkjus_psl.1.0.0.UPF
     MD5 check sum: fa25574f73a70a4139f2adfbefec430c
     Pseudo is Ultrasoft + core correction, Zval =  4.0
     Generated using "atomic" code by A. Dal Corso v.6.3
     Using radial grid of 1141 points,  6 beta functions with: 
                l(1) =   0
                l(2) =   0
                l(3) =   1
                l(4) =   1
                l(5) =   2
                l(6) =   2
     Q(r) pseudized with 0 coefficients 


     atomic species   valence    mass     pseudopotential
        Si             4.00    28.08550     Si( 1.00)

     48 Sym. Ops., with inversion, found (24 have fractional translation)



   Cartesian axes

     site n.     atom                  positions (alat units)
         1           Si  tau(   1) = (   0.0000000   0.0000000   0.0000000  )
         2           Si  tau(   2) = (  -0.2500000   0.2500000   0.2500000  )

     number of k points=    35  Methfessel-Paxton smearing, width (Ry)=  0.0100
                       cart. coord. in units 2pi/alat
        k(    1) = (   0.0000000   0.0000000   0.0000000), wk =   0.0027435
        k(    2) = (  -0.1111111   0.1111111  -0.1111111), wk =   0.0219479
        k(    3) = (  -0.2222222   0.2222222  -0.2222222), wk =   0.0219479
        k(    4) = (  -0.3333333   0.3333333  -0.3333333), wk =   0.0219479
        k(    5) = (  -0.4444444   0.4444444  -0.4444444), wk =   0.0219479
        k(    6) = (   0.0000000   0.2222222   0.0000000), wk =   0.0164609
        k(    7) = (  -0.1111111   0.3333333  -0.1111111), wk =   0.0658436
        k(    8) = (  -0.2222222   0.4444444  -0.2222222), wk =   0.0658436
        k(    9) = (  -0.3333333   0.5555556  -0.3333333), wk =   0.0658436
        k(   10) = (   0.5555556  -0.3333333   0.5555556), wk =   0.0658436
        k(   11) = (   0.4444444  -0.2222222   0.4444444), wk =   0.0658436
        k(   12) = (   0.3333333  -0.1111111   0.3333333), wk =   0.0658436
        k(   13) = (   0.2222222  -0.0000000   0.2222222), wk =   0.0329218
        k(   14) = (   0.0000000   0.4444444   0.0000000), wk =   0.0164609
        k(   15) = (  -0.1111111   0.5555556  -0.1111111), wk =   0.0658436
        k(   16) = (  -0.2222222   0.6666667  -0.2222222), wk =   0.0658436
        k(   17) = (   0.6666667  -0.2222222   0.6666667), wk =   0.0658436
        k(   18) = (   0.5555556  -0.1111111   0.5555556), wk =   0.0658436
        k(   19) = (   0.4444444   0.0000000   0.4444444), wk =   0.0329218
        k(   20) = (   0.0000000   0.6666667   0.0000000), wk =   0.0164609
        k(   21) = (  -0.1111111   0.7777778  -0.1111111), wk =   0.0658436
        k(   22) = (   0.7777778  -0.1111111   0.7777778), wk =   0.0658436
        k(   23) = (   0.6666667  -0.0000000   0.6666667), wk =   0.0329218
        k(   24) = (   0.0000000   0.8888889   0.0000000), wk =   0.0164609
        k(   25) = (   0.8888889   0.0000000   0.8888889), wk =   0.0329218
        k(   26) = (  -0.2222222   0.4444444   0.0000000), wk =   0.0658436
        k(   27) = (  -0.3333333   0.5555556  -0.1111111), wk =   0.1316872
        k(   28) = (   0.5555556  -0.3333333   0.7777778), wk =   0.1316872
        k(   29) = (  -0.2222222   0.6666667   0.0000000), wk =   0.0658436
        k(   30) = (   0.6666667  -0.2222222   0.8888889), wk =   0.1316872
        k(   31) = (   0.5555556  -0.1111111   0.7777778), wk =   0.1316872
        k(   32) = (   0.4444444   0.0000000   0.6666667), wk =   0.0658436
        k(   33) = (   0.7777778  -0.1111111   1.0000000), wk =   0.0658436
        k(   34) = (   0.6666667  -0.0000000   0.8888889), wk =   0.0658436
        k(   35) = (   0.5555556  -0.1111111   1.0000000), wk =   0.0658436

     Dense  grid:    16625 G-vectors     FFT dimensions: (  36,  36,  36)

     Smooth grid:     5961 G-vectors     FFT dimensions: (  32,  32,  32)

     Estimated max dynamical RAM per process >      62.61 MB

     Initial potential from superposition of free atoms

     starting charge    7.99888, renormalised to    8.00000
     Starting wfcs are    8 randomized atomic wfcs

     total cpu time spent up to now is        1.2 secs

     Self-consistent Calculation

     iteration #  1     ecut=    30.00 Ry     beta= 0.70
     Davidson diagonalization with overlap
     ethr =  1.00E-02,  avg # of iterations =  4.1

     Threshold (ethr) on eigenvalues was too large:
     Diagonalizing with lowered threshold

     Davidson diagonalization with overlap
     ethr =  6.65E-04,  avg # of iterations =  1.7

     total cpu time spent up to now is        2.6 secs

     total energy              =     -22.83597226 Ry
     estimated scf accuracy    <       0.05716025 Ry

     iteration #  2     ecut=    30.00 Ry     beta= 0.70
     Davidson diagonalization with overlap
     ethr =  7.15E-04,  avg # of iterations =  1.1

     total cpu time spent up to now is        3.2 secs

     total energy              =     -22.83845509 Ry
     estimated scf accuracy    <       0.00218107 Ry

     iteration #  3     ecut=    30.00 Ry     beta= 0.70
     Davidson diagonalization with overlap
     ethr =  2.73E-05,  avg # of iterations =  4.9

     total cpu time spent up to now is        4.0 secs

     total energy              =     -22.83859331 Ry
     estimated scf accuracy    <       0.00004980 Ry

     iteration #  4     ecut=    30.00 Ry     beta= 0.70
     Davidson diagonalization with overlap
     ethr =  6.22E-07,  avg # of iterations =  4.3

     total cpu time spent up to now is        4.7 secs

     End of self-consistent calculation

          k = 0.0000 0.0000 0.0000 (   725 PWs)   bands (ev):

    -5.6979   6.3825   6.3825   6.3825   8.9521   8.9521   8.9521   9.9383

          k =-0.1111 0.1111-0.1111 (   728 PWs)   bands (ev):

    -5.5341   5.0332   6.1403   6.1403   8.9696   9.3083   9.3083  11.0096

          k =-0.2222 0.2222-0.2222 (   733 PWs)   bands (ev):

    -5.0524   2.9334   5.7097   5.7097   8.5721   9.8402   9.8404  12.9706

          k =-0.3333 0.3333-0.3333 (   751 PWs)   bands (ev):

    -4.2995   0.9947   5.3675   5.3675   8.2039   9.8939   9.8940  14.3180

          k =-0.4444 0.4444-0.4444 (   736 PWs)   bands (ev):

    -3.4913  -0.4255   5.1899   5.1899   8.0045   9.7430   9.7431  14.1777

          k = 0.0000 0.2222 0.0000 (   737 PWs)   bands (ev):

    -5.4790   5.2860   5.6904   5.6904   8.4918   9.9121   9.9121  10.8405

          k =-0.1111 0.3333-0.1111 (   737 PWs)   bands (ev):

    -5.1014   3.5728   5.2090   5.3592   8.5882   9.9859  10.6349  11.3250

          k =-0.2222 0.4444-0.2222 (   739 PWs)   bands (ev):

    -4.4301   1.6364   4.8479   4.9004   8.7285   9.9278  10.7909  11.7458

          k =-0.3333 0.5556-0.3333 (   741 PWs)   bands (ev):

    -3.5878   0.0191   4.4055   4.8186   8.6187   9.8051  10.4937  13.2184

          k = 0.5556-0.3333 0.5556 (   745 PWs)   bands (ev):

    -3.1990  -0.5660   4.1408   4.9624   8.6363   9.8142  10.2222  14.6169

          k = 0.4444-0.2222 0.4444 (   743 PWs)   bands (ev):

    -3.8721   0.5041   4.1029   5.2993   8.8370  10.0367  10.1039  13.8661

          k = 0.3333-0.1111 0.3333 (   736 PWs)   bands (ev):

    -4.6851   2.2620   4.3336   5.7570   9.1697   9.9051  10.1945  12.5528

          k = 0.2222-0.0000 0.2222 (   741 PWs)   bands (ev):

    -5.2635   4.0537   4.9886   6.1570   9.4010   9.4548   9.6244  11.8909

          k = 0.0000 0.4444 0.0000 (   729 PWs)   bands (ev):

    -4.8284   3.3691   4.6786   4.6786   7.6779   9.9516  11.7060  11.7060

          k =-0.1111 0.5556-0.1111 (   735 PWs)   bands (ev):

    -4.2503   2.0130   4.0461   4.3315   7.8344   9.5527  11.9712  12.2790

          k =-0.2222 0.6667-0.2222 (   739 PWs)   bands (ev):

    -3.4371   0.5123   3.2958   4.2330   8.0161  10.5877  11.7416  12.0692

          k = 0.6667-0.2222 0.6667 (   735 PWs)   bands (ev):

    -2.7662  -0.4521   2.7675   4.3918   8.1709  11.4604  11.6744  12.6336

          k = 0.5556-0.1111 0.5556 (   738 PWs)   bands (ev):

    -3.1885   0.1399   2.5789   4.7802   8.5714  11.3380  11.4024  13.6866

          k = 0.4444 0.0000 0.4444 (   742 PWs)   bands (ev):

    -4.0268   1.4115   2.9640   5.3127   9.1271  10.7380  11.0810  12.3397

          k = 0.0000 0.6667 0.0000 (   733 PWs)   bands (ev):

    -3.7659   1.3545   3.9240   3.9240   7.0858   8.3521  13.7222  13.7222

          k =-0.1111 0.7778-0.1111 (   738 PWs)   bands (ev):

    -3.0151   0.2887   3.1820   3.7648   7.3277   8.4079  14.0485  14.0588

          k = 0.7778-0.1111 0.7778 (   736 PWs)   bands (ev):

    -2.2041  -0.6252   2.2576   3.8743   7.5250  10.0378  13.6691  13.8463

          k = 0.6667-0.0000 0.6667 (   730 PWs)   bands (ev):

    -2.3789  -0.4349   1.8870   4.2361   7.9346  12.2061  12.9181  13.5512

          k = 0.0000 0.8889 0.0000 (   741 PWs)   bands (ev):

    -2.3302  -0.5888   3.5328   3.5328   6.9349   7.3331  15.8360  15.8360

          k = 0.8889 0.0000 0.8889 (   734 PWs)   bands (ev):

    -1.5431  -1.3741   2.9009   3.5711   7.1615   8.0086  15.7153  16.0853

          k =-0.2222 0.4444 0.0000 (   739 PWs)   bands (ev):

    -4.6245   2.5792   3.9694   5.2001   8.7670  10.2812  10.7728  11.4563

          k =-0.3333 0.5556-0.1111 (   739 PWs)   bands (ev):

    -3.8769   1.0638   3.3594   4.7521   9.1640  10.0216  11.2034  11.8924

          k = 0.5556-0.3333 0.7778 (   735 PWs)   bands (ev):

    -3.0635  -0.2519   3.1699   4.4207   9.2760   9.5859  11.8427  12.9654

          k =-0.2222 0.6667 0.0000 (   743 PWs)   bands (ev):

    -3.5881   1.0446   3.2462   3.9490   8.2012   9.2048  11.8911  13.6292

          k = 0.6667-0.2222 0.8889 (   737 PWs)   bands (ev):

    -2.7459  -0.0578   2.5708   3.6355   8.6052  10.3180  11.4471  14.0362

          k = 0.5556-0.1111 0.7778 (   728 PWs)   bands (ev):

    -2.3709  -0.4946   2.1764   3.7510   8.9020  10.9323  12.4901  13.0753

          k = 0.4444 0.0000 0.6667 (   735 PWs)   bands (ev):

    -3.0869   0.3224   2.3241   4.1974   9.4259  10.4314  11.3040  13.3720

          k = 0.7778-0.1111 1.0000 (   741 PWs)   bands (ev):

    -2.2104  -0.6031   2.9530   3.1649   8.0185   8.3270  13.6817  15.6182

          k = 0.6667-0.0000 0.8889 (   731 PWs)   bands (ev):

    -1.6743  -1.0728   2.2103   3.2554   8.3926  10.0553  13.1254  13.3826

          k = 0.5556-0.1111 1.0000 (   735 PWs)   bands (ev):

    -1.9255  -0.7502   2.2509   2.9043  10.2499  10.3217  11.0769  12.8223

     the Fermi energy is     6.4914 ev

!    total energy              =     -22.83860108 Ry
     estimated scf accuracy    <       0.00000010 Ry
     smearing contrib. (-TS)   =       0.00000394 Ry
     internal energy E=F+TS    =     -22.83860502 Ry

     The total energy is F=E-TS. E is the sum of the following terms:
     one-electron contribution =       5.29763827 Ry
     hartree contribution      =       1.08581583 Ry
     xc contribution           =     -12.32978792 Ry
     ewald contribution        =     -16.89227120 Ry

     convergence has been achieved in   4 iterations

     Writing output data file /home/jesus/Documentos/Nanociencia_DFT/test.save/
 
     init_run     :      0.53s CPU      0.59s WALL (       1 calls)
     electrons    :      3.30s CPU      3.52s WALL (       1 calls)

     Called by init_run:
     wfcinit      :      0.20s CPU      0.21s WALL (       1 calls)
     potinit      :      0.03s CPU      0.03s WALL (       1 calls)
     hinit0       :      0.24s CPU      0.26s WALL (       1 calls)

     Called by electrons:
     c_bands      :      2.51s CPU      2.55s WALL (       5 calls)
     sum_band     :      0.60s CPU      0.69s WALL (       5 calls)
     v_of_rho     :      0.09s CPU      0.10s WALL (       5 calls)
     newd         :      0.16s CPU      0.27s WALL (       5 calls)
     mix_rho      :      0.01s CPU      0.01s WALL (       5 calls)

     Called by c_bands:
     init_us_2    :      0.08s CPU      0.08s WALL (     385 calls)
     cegterg      :      2.13s CPU      2.16s WALL (     175 calls)

     Called by *egterg:
     cdiaghg      :      0.07s CPU      0.07s WALL (     701 calls)
     h_psi        :      2.06s CPU      2.09s WALL (     771 calls)
     s_psi        :      0.05s CPU      0.05s WALL (     771 calls)
     g_psi        :      0.01s CPU      0.01s WALL (     561 calls)

     Called by h_psi:
     h_psi:calbec :      0.06s CPU      0.06s WALL (     771 calls)
     vloc_psi     :      1.94s CPU      1.97s WALL (     771 calls)
     add_vuspsi   :      0.05s CPU      0.05s WALL (     771 calls)

     General routines
     calbec       :      0.07s CPU      0.07s WALL (     946 calls)
     fft          :      0.03s CPU      0.05s WALL (      64 calls)
     ffts         :      0.00s CPU      0.00s WALL (      10 calls)
     fftw         :      1.94s CPU      1.96s WALL (    9566 calls)
     interpolate  :      0.00s CPU      0.00s WALL (       5 calls)
 
     Parallel routines
 
     PWSCF        :      4.45s CPU      4.76s WALL

 
   This run was terminated on:  19:58:52  15Mar2021            

=------------------------------------------------------------------------------=
   JOB DONE.
=------------------------------------------------------------------------------=
