
     Program PWSCF v.6.6 starts on 15Mar2021 at 19:58:35 

     This program is part of the open-source Quantum ESPRESSO suite
     for quantum simulation of materials; please cite
         "P. Giannozzi et al., J. Phys.:Condens. Matter 21 395502 (2009);
         "P. Giannozzi et al., J. Phys.:Condens. Matter 29 465901 (2017);
          URL http://www.quantum-espresso.org", 
     in publications or presentations arising from this work. More details at
     http://www.quantum-espresso.org/quote

     Parallel version (MPI), running on     1 processors

     MPI processes distributed on     1 nodes
     Fft bands division:     nmany     =       1
     Waiting for input...
     Reading input from standard input
Warning: card &CELL ignored
Warning: card   CELL_DYNAMICS='BFGS', ignored
Warning: card   CELL_DOFREE='ALL', ignored
Warning: card / ignored

     Current dimensions of program PWSCF are:
     Max number of different atomic species (ntypx) = 10
     Max number of k-points (npk) =  40000
     Max angular momentum in pseudopotentials (lmaxx) =  3

     Subspace diagonalization in iterative solution of the eigenvalue problem:
     a serial algorithm will be used

 
     G-vector sticks info
     --------------------
     sticks:   dense  smooth     PW     G-vecs:    dense   smooth      PW
     Sum         859     433    139                16625     5961    1067
 


     bravais-lattice index     =            2
     lattice parameter (alat)  =      10.2045  a.u.
     unit-cell volume          =     265.6549 (a.u.)^3
     number of atoms/cell      =            2
     number of atomic types    =            1
     number of electrons       =         8.00
     number of Kohn-Sham states=            8
     kinetic-energy cutoff     =      30.0000  Ry
     charge density cutoff     =     240.0000  Ry
     convergence threshold     =      1.0E-06
     mixing beta               =       0.7000
     number of iterations used =            8  plain     mixing
     Exchange-correlation= PBE
                           (   1   4   3   4   0   0   0)

     celldm(1)=  10.204521  celldm(2)=   0.000000  celldm(3)=   0.000000
     celldm(4)=   0.000000  celldm(5)=   0.000000  celldm(6)=   0.000000

     crystal axes: (cart. coord. in units of alat)
               a(1) = (  -0.500000   0.000000   0.500000 )  
               a(2) = (   0.000000   0.500000   0.500000 )  
               a(3) = (  -0.500000   0.500000   0.000000 )  

     reciprocal axes: (cart. coord. in units 2 pi/alat)
               b(1) = ( -1.000000 -1.000000  1.000000 )  
               b(2) = (  1.000000  1.000000  1.000000 )  
               b(3) = ( -1.000000  1.000000 -1.000000 )  


     PseudoPot. # 1 for Si read from file:
     /home/jesus/Documentos/Nanociencia_DFT/pseudopotenciales/Si.pbe-n-rrkjus_psl.1.0.0.UPF
     MD5 check sum: fa25574f73a70a4139f2adfbefec430c
     Pseudo is Ultrasoft + core correction, Zval =  4.0
     Generated using "atomic" code by A. Dal Corso v.6.3
     Using radial grid of 1141 points,  6 beta functions with: 
                l(1) =   0
                l(2) =   0
                l(3) =   1
                l(4) =   1
                l(5) =   2
                l(6) =   2
     Q(r) pseudized with 0 coefficients 


     atomic species   valence    mass     pseudopotential
        Si             4.00    28.08550     Si( 1.00)

     48 Sym. Ops., with inversion, found (24 have fractional translation)



   Cartesian axes

     site n.     atom                  positions (alat units)
         1           Si  tau(   1) = (   0.0000000   0.0000000   0.0000000  )
         2           Si  tau(   2) = (  -0.2500000   0.2500000   0.2500000  )

     number of k points=    16  Methfessel-Paxton smearing, width (Ry)=  0.0100
                       cart. coord. in units 2pi/alat
        k(    1) = (   0.0000000   0.0000000   0.0000000), wk =   0.0092593
        k(    2) = (  -0.1666667   0.1666667  -0.1666667), wk =   0.0740741
        k(    3) = (  -0.3333333   0.3333333  -0.3333333), wk =   0.0740741
        k(    4) = (   0.5000000  -0.5000000   0.5000000), wk =   0.0370370
        k(    5) = (   0.0000000   0.3333333   0.0000000), wk =   0.0555556
        k(    6) = (  -0.1666667   0.5000000  -0.1666667), wk =   0.2222222
        k(    7) = (   0.6666667  -0.3333333   0.6666667), wk =   0.2222222
        k(    8) = (   0.5000000  -0.1666667   0.5000000), wk =   0.2222222
        k(    9) = (   0.3333333   0.0000000   0.3333333), wk =   0.1111111
        k(   10) = (   0.0000000   0.6666667   0.0000000), wk =   0.0555556
        k(   11) = (   0.8333333  -0.1666667   0.8333333), wk =   0.2222222
        k(   12) = (   0.6666667  -0.0000000   0.6666667), wk =   0.1111111
        k(   13) = (   0.0000000  -1.0000000   0.0000000), wk =   0.0277778
        k(   14) = (   0.6666667  -0.3333333   1.0000000), wk =   0.2222222
        k(   15) = (   0.5000000  -0.1666667   0.8333333), wk =   0.2222222
        k(   16) = (  -0.3333333  -1.0000000   0.0000000), wk =   0.1111111

     Dense  grid:    16625 G-vectors     FFT dimensions: (  36,  36,  36)

     Smooth grid:     5961 G-vectors     FFT dimensions: (  32,  32,  32)

     Estimated max dynamical RAM per process >      60.90 MB

     Initial potential from superposition of free atoms

     starting charge    7.99888, renormalised to    8.00000
     Starting wfcs are    8 randomized atomic wfcs

     total cpu time spent up to now is        1.2 secs

     Self-consistent Calculation

     iteration #  1     ecut=    30.00 Ry     beta= 0.70
     Davidson diagonalization with overlap
     ethr =  1.00E-02,  avg # of iterations =  3.6

     Threshold (ethr) on eigenvalues was too large:
     Diagonalizing with lowered threshold

     Davidson diagonalization with overlap
     ethr =  6.76E-04,  avg # of iterations =  2.2

     total cpu time spent up to now is        2.0 secs

     total energy              =     -22.83422471 Ry
     estimated scf accuracy    <       0.05828996 Ry

     iteration #  2     ecut=    30.00 Ry     beta= 0.70
     Davidson diagonalization with overlap
     ethr =  7.29E-04,  avg # of iterations =  1.1

     total cpu time spent up to now is        2.3 secs

     total energy              =     -22.83676994 Ry
     estimated scf accuracy    <       0.00223167 Ry

     iteration #  3     ecut=    30.00 Ry     beta= 0.70
     Davidson diagonalization with overlap
     ethr =  2.79E-05,  avg # of iterations =  4.2

     total cpu time spent up to now is        2.7 secs

     total energy              =     -22.83690202 Ry
     estimated scf accuracy    <       0.00005041 Ry

     iteration #  4     ecut=    30.00 Ry     beta= 0.70
     Davidson diagonalization with overlap
     ethr =  6.30E-07,  avg # of iterations =  3.9

     total cpu time spent up to now is        3.1 secs

     End of self-consistent calculation

          k = 0.0000 0.0000 0.0000 (   725 PWs)   bands (ev):

    -5.6919   6.3901   6.3901   6.3901   8.9564   8.9564   8.9564   9.9463

          k =-0.1667 0.1667-0.1667 (   730 PWs)   bands (ev):

    -5.3254   3.9929   5.9314   5.9314   8.7918   9.6144   9.6145  11.9905

          k =-0.3333 0.3333-0.3333 (   751 PWs)   bands (ev):

    -4.2933   1.0008   5.3743   5.3743   8.2100   9.8981   9.8982  14.3232

          k = 0.5000-0.5000 0.5000 (   754 PWs)   bands (ev):

    -3.3171  -0.6647   5.1743   5.1743   7.9853   9.7203   9.7203  14.1417

          k = 0.0000 0.3333 0.0000 (   737 PWs)   bands (ev):

    -5.2008   4.3644   5.1730   5.1730   8.0854  10.7562  10.7707  10.7707

          k =-0.1667 0.5000-0.1667 (   742 PWs)   bands (ev):

    -4.3729   1.9247   4.3704   4.6123   8.3505  10.4964  10.9410  11.4994

          k = 0.6667-0.3333 0.6667 (   732 PWs)   bands (ev):

    -3.1580  -0.2846   3.5756   4.5837   8.4312  10.5515  11.0257  12.8596

          k = 0.5000-0.1667 0.5000 (   734 PWs)   bands (ev):

    -3.5515   0.3268   3.2962   5.0723   8.8606  10.5477  10.6312  13.7650

          k = 0.3333 0.0000 0.3333 (   740 PWs)   bands (ev):

    -4.7282   2.6549   3.9310   5.8182   9.4784   9.9645  10.2685  12.1242

          k = 0.0000 0.6667 0.0000 (   733 PWs)   bands (ev):

    -3.7596   1.3616   3.9300   3.9300   7.0903   8.3561  13.7284  13.7284

          k = 0.8333-0.1667 0.8333 (   737 PWs)   bands (ev):

    -2.5762  -0.2155   2.6890   3.7921   7.4249   9.1025  13.9003  13.9660

          k = 0.6667-0.0000 0.6667 (   730 PWs)   bands (ev):

    -2.3722  -0.4282   1.8919   4.2422   7.9389  12.2118  12.9229  13.5575

          k = 0.0000-1.0000 0.0000 (   740 PWs)   bands (ev):

    -1.4855  -1.4855   3.4892   3.4892   7.0643   7.0643  16.6377  16.6378

          k = 0.6667-0.3333 1.0000 (   740 PWs)   bands (ev):

    -3.3668   0.7157   2.7543   4.0519   9.2497  10.0985  10.6739  13.5246

          k = 0.5000-0.1667 0.8333 (   734 PWs)   bands (ev):

    -2.3615  -0.5070   2.3099   3.5743   9.7379   9.9796  12.5272  12.9760

          k =-0.3333-1.0000 0.0000 (   738 PWs)   bands (ev):

    -1.3600  -1.3600   2.6743   2.6743   9.1364   9.1364  13.2170  13.2170

     the Fermi energy is     6.9604 ev

!    total energy              =     -22.83690926 Ry
     estimated scf accuracy    <       0.00000013 Ry
     smearing contrib. (-TS)   =       0.00003328 Ry
     internal energy E=F+TS    =     -22.83694254 Ry

     The total energy is F=E-TS. E is the sum of the following terms:
     one-electron contribution =       5.29721389 Ry
     hartree contribution      =       1.08991394 Ry
     xc contribution           =     -12.33179917 Ry
     ewald contribution        =     -16.89227120 Ry

     convergence has been achieved in   4 iterations

     Writing output data file /home/jesus/Documentos/Nanociencia_DFT/test.save/
 
     init_run     :      0.46s CPU      0.52s WALL (       1 calls)
     electrons    :      1.76s CPU      1.96s WALL (       1 calls)

     Called by init_run:
     wfcinit      :      0.11s CPU      0.11s WALL (       1 calls)
     potinit      :      0.04s CPU      0.04s WALL (       1 calls)
     hinit0       :      0.26s CPU      0.28s WALL (       1 calls)

     Called by electrons:
     c_bands      :      1.18s CPU      1.20s WALL (       5 calls)
     sum_band     :      0.38s CPU      0.47s WALL (       5 calls)
     v_of_rho     :      0.10s CPU      0.11s WALL (       5 calls)
     newd         :      0.16s CPU      0.27s WALL (       5 calls)
     mix_rho      :      0.00s CPU      0.01s WALL (       5 calls)

     Called by c_bands:
     init_us_2    :      0.04s CPU      0.04s WALL (     176 calls)
     cegterg      :      1.00s CPU      1.01s WALL (      80 calls)

     Called by *egterg:
     cdiaghg      :      0.03s CPU      0.03s WALL (     306 calls)
     h_psi        :      0.98s CPU      0.99s WALL (     338 calls)
     s_psi        :      0.02s CPU      0.02s WALL (     338 calls)
     g_psi        :      0.00s CPU      0.00s WALL (     242 calls)

     Called by h_psi:
     h_psi:calbec :      0.03s CPU      0.03s WALL (     338 calls)
     vloc_psi     :      0.92s CPU      0.94s WALL (     338 calls)
     add_vuspsi   :      0.02s CPU      0.02s WALL (     338 calls)

     General routines
     calbec       :      0.03s CPU      0.03s WALL (     418 calls)
     fft          :      0.03s CPU      0.05s WALL (      64 calls)
     ffts         :      0.00s CPU      0.00s WALL (      10 calls)
     fftw         :      0.91s CPU      0.92s WALL (    4304 calls)
     interpolate  :      0.00s CPU      0.00s WALL (       5 calls)
 
     Parallel routines
 
     PWSCF        :      2.86s CPU      3.14s WALL

 
   This run was terminated on:  19:58:39  15Mar2021            

=------------------------------------------------------------------------------=
   JOB DONE.
=------------------------------------------------------------------------------=
