
     Program PWSCF v.6.6 starts on 15Mar2021 at 19:58:52 

     This program is part of the open-source Quantum ESPRESSO suite
     for quantum simulation of materials; please cite
         "P. Giannozzi et al., J. Phys.:Condens. Matter 21 395502 (2009);
         "P. Giannozzi et al., J. Phys.:Condens. Matter 29 465901 (2017);
          URL http://www.quantum-espresso.org", 
     in publications or presentations arising from this work. More details at
     http://www.quantum-espresso.org/quote

     Parallel version (MPI), running on     1 processors

     MPI processes distributed on     1 nodes
     Fft bands division:     nmany     =       1
     Waiting for input...
     Reading input from standard input
Warning: card &CELL ignored
Warning: card   CELL_DYNAMICS='BFGS', ignored
Warning: card   CELL_DOFREE='ALL', ignored
Warning: card / ignored

     Current dimensions of program PWSCF are:
     Max number of different atomic species (ntypx) = 10
     Max number of k-points (npk) =  40000
     Max angular momentum in pseudopotentials (lmaxx) =  3

     Subspace diagonalization in iterative solution of the eigenvalue problem:
     a serial algorithm will be used

 
     G-vector sticks info
     --------------------
     sticks:   dense  smooth     PW     G-vecs:    dense   smooth      PW
     Sum         859     433    139                16625     5961    1067
 


     bravais-lattice index     =            2
     lattice parameter (alat)  =      10.2045  a.u.
     unit-cell volume          =     265.6549 (a.u.)^3
     number of atoms/cell      =            2
     number of atomic types    =            1
     number of electrons       =         8.00
     number of Kohn-Sham states=            8
     kinetic-energy cutoff     =      30.0000  Ry
     charge density cutoff     =     240.0000  Ry
     convergence threshold     =      1.0E-06
     mixing beta               =       0.7000
     number of iterations used =            8  plain     mixing
     Exchange-correlation= PBE
                           (   1   4   3   4   0   0   0)

     celldm(1)=  10.204521  celldm(2)=   0.000000  celldm(3)=   0.000000
     celldm(4)=   0.000000  celldm(5)=   0.000000  celldm(6)=   0.000000

     crystal axes: (cart. coord. in units of alat)
               a(1) = (  -0.500000   0.000000   0.500000 )  
               a(2) = (   0.000000   0.500000   0.500000 )  
               a(3) = (  -0.500000   0.500000   0.000000 )  

     reciprocal axes: (cart. coord. in units 2 pi/alat)
               b(1) = ( -1.000000 -1.000000  1.000000 )  
               b(2) = (  1.000000  1.000000  1.000000 )  
               b(3) = ( -1.000000  1.000000 -1.000000 )  


     PseudoPot. # 1 for Si read from file:
     /home/jesus/Documentos/Nanociencia_DFT/pseudopotenciales/Si.pbe-n-rrkjus_psl.1.0.0.UPF
     MD5 check sum: fa25574f73a70a4139f2adfbefec430c
     Pseudo is Ultrasoft + core correction, Zval =  4.0
     Generated using "atomic" code by A. Dal Corso v.6.3
     Using radial grid of 1141 points,  6 beta functions with: 
                l(1) =   0
                l(2) =   0
                l(3) =   1
                l(4) =   1
                l(5) =   2
                l(6) =   2
     Q(r) pseudized with 0 coefficients 


     atomic species   valence    mass     pseudopotential
        Si             4.00    28.08550     Si( 1.00)

     48 Sym. Ops., with inversion, found (24 have fractional translation)



   Cartesian axes

     site n.     atom                  positions (alat units)
         1           Si  tau(   1) = (   0.0000000   0.0000000   0.0000000  )
         2           Si  tau(   2) = (  -0.2500000   0.2500000   0.2500000  )

     number of k points=    47  Methfessel-Paxton smearing, width (Ry)=  0.0100
                       cart. coord. in units 2pi/alat
        k(    1) = (   0.0000000   0.0000000   0.0000000), wk =   0.0020000
        k(    2) = (  -0.1000000   0.1000000  -0.1000000), wk =   0.0160000
        k(    3) = (  -0.2000000   0.2000000  -0.2000000), wk =   0.0160000
        k(    4) = (  -0.3000000   0.3000000  -0.3000000), wk =   0.0160000
        k(    5) = (  -0.4000000   0.4000000  -0.4000000), wk =   0.0160000
        k(    6) = (   0.5000000  -0.5000000   0.5000000), wk =   0.0080000
        k(    7) = (   0.0000000   0.2000000   0.0000000), wk =   0.0120000
        k(    8) = (  -0.1000000   0.3000000  -0.1000000), wk =   0.0480000
        k(    9) = (  -0.2000000   0.4000000  -0.2000000), wk =   0.0480000
        k(   10) = (  -0.3000000   0.5000000  -0.3000000), wk =   0.0480000
        k(   11) = (   0.6000000  -0.4000000   0.6000000), wk =   0.0480000
        k(   12) = (   0.5000000  -0.3000000   0.5000000), wk =   0.0480000
        k(   13) = (   0.4000000  -0.2000000   0.4000000), wk =   0.0480000
        k(   14) = (   0.3000000  -0.1000000   0.3000000), wk =   0.0480000
        k(   15) = (   0.2000000   0.0000000   0.2000000), wk =   0.0240000
        k(   16) = (   0.0000000   0.4000000   0.0000000), wk =   0.0120000
        k(   17) = (  -0.1000000   0.5000000  -0.1000000), wk =   0.0480000
        k(   18) = (  -0.2000000   0.6000000  -0.2000000), wk =   0.0480000
        k(   19) = (   0.7000000  -0.3000000   0.7000000), wk =   0.0480000
        k(   20) = (   0.6000000  -0.2000000   0.6000000), wk =   0.0480000
        k(   21) = (   0.5000000  -0.1000000   0.5000000), wk =   0.0480000
        k(   22) = (   0.4000000   0.0000000   0.4000000), wk =   0.0240000
        k(   23) = (   0.0000000   0.6000000   0.0000000), wk =   0.0120000
        k(   24) = (  -0.1000000   0.7000000  -0.1000000), wk =   0.0480000
        k(   25) = (   0.8000000  -0.2000000   0.8000000), wk =   0.0480000
        k(   26) = (   0.7000000  -0.1000000   0.7000000), wk =   0.0480000
        k(   27) = (   0.6000000  -0.0000000   0.6000000), wk =   0.0240000
        k(   28) = (   0.0000000   0.8000000   0.0000000), wk =   0.0120000
        k(   29) = (   0.9000000  -0.1000000   0.9000000), wk =   0.0480000
        k(   30) = (   0.8000000   0.0000000   0.8000000), wk =   0.0240000
        k(   31) = (   0.0000000  -1.0000000   0.0000000), wk =   0.0060000
        k(   32) = (  -0.2000000   0.4000000   0.0000000), wk =   0.0480000
        k(   33) = (  -0.3000000   0.5000000  -0.1000000), wk =   0.0960000
        k(   34) = (   0.6000000  -0.4000000   0.8000000), wk =   0.0960000
        k(   35) = (   0.5000000  -0.3000000   0.7000000), wk =   0.0480000
        k(   36) = (  -0.2000000   0.6000000   0.0000000), wk =   0.0480000
        k(   37) = (   0.7000000  -0.3000000   0.9000000), wk =   0.0960000
        k(   38) = (   0.6000000  -0.2000000   0.8000000), wk =   0.0960000
        k(   39) = (   0.5000000  -0.1000000   0.7000000), wk =   0.0960000
        k(   40) = (   0.4000000   0.0000000   0.6000000), wk =   0.0480000
        k(   41) = (   0.8000000  -0.2000000   1.0000000), wk =   0.0480000
        k(   42) = (   0.7000000  -0.1000000   0.9000000), wk =   0.0960000
        k(   43) = (   0.6000000   0.0000000   0.8000000), wk =   0.0480000
        k(   44) = (  -0.2000000  -1.0000000   0.0000000), wk =   0.0240000
        k(   45) = (   0.6000000  -0.2000000   1.0000000), wk =   0.0480000
        k(   46) = (   0.5000000  -0.1000000   0.9000000), wk =   0.0480000
        k(   47) = (  -0.4000000  -1.0000000   0.0000000), wk =   0.0240000

     Dense  grid:    16625 G-vectors     FFT dimensions: (  36,  36,  36)

     Smooth grid:     5961 G-vectors     FFT dimensions: (  32,  32,  32)

     Estimated max dynamical RAM per process >      63.69 MB

     Initial potential from superposition of free atoms

     starting charge    7.99888, renormalised to    8.00000
     Starting wfcs are    8 randomized atomic wfcs

     total cpu time spent up to now is        1.4 secs

     Self-consistent Calculation

     iteration #  1     ecut=    30.00 Ry     beta= 0.70
     Davidson diagonalization with overlap
     ethr =  1.00E-02,  avg # of iterations =  3.9

     Threshold (ethr) on eigenvalues was too large:
     Diagonalizing with lowered threshold

     Davidson diagonalization with overlap
     ethr =  6.63E-04,  avg # of iterations =  1.9

     total cpu time spent up to now is        3.1 secs

     total energy              =     -22.83601754 Ry
     estimated scf accuracy    <       0.05712832 Ry

     iteration #  2     ecut=    30.00 Ry     beta= 0.70
     Davidson diagonalization with overlap
     ethr =  7.14E-04,  avg # of iterations =  1.1

     total cpu time spent up to now is        3.9 secs

     total energy              =     -22.83852457 Ry
     estimated scf accuracy    <       0.00217041 Ry

     iteration #  3     ecut=    30.00 Ry     beta= 0.70
     Davidson diagonalization with overlap
     ethr =  2.71E-05,  avg # of iterations =  4.8

     total cpu time spent up to now is        4.9 secs

     total energy              =     -22.83866191 Ry
     estimated scf accuracy    <       0.00005044 Ry

     iteration #  4     ecut=    30.00 Ry     beta= 0.70
     Davidson diagonalization with overlap
     ethr =  6.31E-07,  avg # of iterations =  3.9

     total cpu time spent up to now is        5.8 secs

     End of self-consistent calculation

          k = 0.0000 0.0000 0.0000 (   725 PWs)   bands (ev):

    -5.6980   6.3824   6.3824   6.3824   8.9520   8.9520   8.9520   9.9382

          k =-0.1000 0.1000-0.1000 (   731 PWs)   bands (ev):

    -5.5652   5.2335   6.1801   6.1801   8.9953   9.2497   9.2497  10.8282

          k =-0.2000 0.2000-0.2000 (   733 PWs)   bands (ev):

    -5.1729   3.3512   5.7934   5.7934   8.6578   9.7631   9.7631  12.5795

          k =-0.3000 0.3000-0.3000 (   751 PWs)   bands (ev):

    -4.5477   1.5415   5.4543   5.4543   8.2995   9.9247   9.9248  14.1217

          k =-0.4000 0.4000-0.4000 (   745 PWs)   bands (ev):

    -3.7866   0.0422   5.2398   5.2398   8.0610   9.7963   9.7964  14.2567

          k = 0.5000-0.5000 0.5000 (   754 PWs)   bands (ev):

    -3.3237  -0.6704   5.1674   5.1674   7.9789   9.7164   9.7164  14.1371

          k = 0.0000 0.2000 0.0000 (   733 PWs)   bands (ev):

    -5.5206   5.4576   5.7935   5.7935   8.5678   9.7583   9.7583  10.7410

          k =-0.1000 0.3000-0.1000 (   735 PWs)   bands (ev):

    -5.2137   3.9222   5.3513   5.5341   8.6316   9.8513  10.4215  11.4296

          k =-0.2000 0.4000-0.2000 (   737 PWs)   bands (ev):

    -4.6617   2.1367   5.0283   5.0960   8.7844   9.8146  10.6968  11.7276

          k =-0.3000 0.5000-0.3000 (   738 PWs)   bands (ev):

    -3.9250   0.5390   4.6787   4.8801   8.6540   9.7479  10.5035  12.8144

          k = 0.6000-0.4000 0.6000 (   741 PWs)   bands (ev):

    -3.2695  -0.5185   4.3831   4.9150   8.5753   9.7046  10.2270  14.2403

          k = 0.5000-0.3000 0.5000 (   741 PWs)   bands (ev):

    -3.4412  -0.2642   4.2508   5.1191   8.6451   9.8328  10.0699  14.4993

          k = 0.4000-0.2000 0.4000 (   742 PWs)   bands (ev):

    -4.1852   1.0409   4.3086   5.4597   8.8558  10.0061  10.0893  13.4756

          k = 0.3000-0.1000 0.3000 (   742 PWs)   bands (ev):

    -4.8723   2.7155   4.5838   5.8726   9.1669   9.7694  10.1165  12.4306

          k = 0.2000 0.0000 0.2000 (   739 PWs)   bands (ev):

    -5.3454   4.3482   5.1980   6.2048   9.3158   9.4239   9.5171  11.7113

          k = 0.0000 0.4000 0.0000 (   725 PWs)   bands (ev):

    -4.9924   3.7681   4.8668   4.8668   7.8341  10.2990  11.3222  11.3222

          k =-0.1000 0.5000-0.1000 (   737 PWs)   bands (ev):

    -4.5197   2.5003   4.3559   4.5136   7.9334   9.8446  11.5965  11.9167

          k =-0.2000 0.6000-0.2000 (   750 PWs)   bands (ev):

    -3.8332   1.0369   3.7208   4.3523   8.1483  10.4836  11.3838  11.8544

          k = 0.7000-0.3000 0.7000 (   740 PWs)   bands (ev):

    -3.0872  -0.1712   3.2039   4.3980   8.2153  11.1360  11.5123  12.0814

          k = 0.6000-0.2000 0.6000 (   729 PWs)   bands (ev):

    -2.9299  -0.3851   2.8990   4.6412   8.4402  11.0400  11.2048  14.0174

          k = 0.5000-0.1000 0.5000 (   736 PWs)   bands (ev):

    -3.5982   0.6232   2.8730   5.0460   8.8533  10.9382  11.0398  13.1831

          k = 0.4000 0.0000 0.4000 (   734 PWs)   bands (ev):

    -4.3287   1.8829   3.3275   5.5253   9.3106  10.4009  10.7310  12.1976

          k = 0.0000 0.6000 0.0000 (   725 PWs)   bands (ev):

    -4.1261   1.9576   4.1146   4.1146   7.2235   8.7807  13.1036  13.1037

          k =-0.1000 0.7000-0.1000 (   732 PWs)   bands (ev):

    -3.5037   0.9375   3.4758   3.9070   7.4121   8.6124  13.4223  13.5180

          k = 0.8000-0.2000 0.8000 (   741 PWs)   bands (ev):

    -2.7399  -0.0857   2.6309   3.9143   7.5890   9.7695  13.2492  13.2509

          k = 0.7000-0.1000 0.7000 (   730 PWs)   bands (ev):

    -2.3094  -0.5734   2.0666   4.1338   7.8275  11.5895  12.8471  13.0966

          k = 0.6000-0.0000 0.6000 (   732 PWs)   bands (ev):

    -2.8587   0.0263   2.0391   4.5373   8.2840  12.1814  12.4689  13.3405

          k = 0.0000 0.8000 0.0000 (   749 PWs)   bands (ev):

    -2.9458   0.1712   3.6431   3.6431   6.9343   7.6635  14.9863  14.9864

          k = 0.9000-0.1000 0.9000 (   738 PWs)   bands (ev):

    -2.2050  -0.6810   3.0428   3.5940   7.1688   7.9380  15.2238  15.3464

          k = 0.8000 0.0000 0.8000 (   736 PWs)   bands (ev):

    -1.7165  -1.1102   2.2410   3.7641   7.3853   9.5395  14.5654  15.2456

          k = 0.0000-1.0000 0.0000 (   740 PWs)   bands (ev):

    -1.4922  -1.4922   3.4834   3.4834   7.0600   7.0600  16.6316  16.6317

          k =-0.2000 0.4000 0.0000 (   741 PWs)   bands (ev):

    -4.8245   2.9981   4.2626   5.3986   8.7355  10.1831  10.9892  11.0904

          k =-0.3000 0.5000-0.1000 (   737 PWs)   bands (ev):

    -4.2033   1.5669   3.6705   5.0153   9.0966  10.0382  11.1232  11.5424

          k = 0.6000-0.4000 0.8000 (   738 PWs)   bands (ev):

    -3.4425   0.1790   3.4416   4.6571   9.1624   9.6778  11.4832  12.4795

          k = 0.5000-0.3000 0.7000 (   738 PWs)   bands (ev):

    -2.9721  -0.5138   3.3832   4.5158   9.2076   9.4710  11.4388  14.3199

          k =-0.2000 0.6000 0.0000 (   740 PWs)   bands (ev):

    -3.9737   1.5928   3.5246   4.2610   8.1545   9.4392  11.6429  12.9902

          k = 0.7000-0.3000 0.9000 (   738 PWs)   bands (ev):

    -3.2411   0.4731   2.8982   3.9241   8.5377  10.1467  11.2610  13.3886

          k = 0.6000-0.2000 0.8000 (   731 PWs)   bands (ev):

    -2.5766  -0.4090   2.4849   3.8674   8.7219  10.7778  11.9393  13.3236

          k = 0.5000-0.1000 0.7000 (   733 PWs)   bands (ev):

    -2.7824  -0.1438   2.3291   4.1127   9.0723  10.5209  12.3828  13.1649

          k = 0.4000 0.0000 0.6000 (   745 PWs)   bands (ev):

    -3.5322   0.8228   2.6311   4.5622   9.5831  10.0632  11.1294  12.7010

          k = 0.8000-0.2000 1.0000 (   741 PWs)   bands (ev):

    -2.8247   0.0854   3.1068   3.4373   7.8542   8.4419  13.2073  14.9734

          k = 0.7000-0.1000 0.9000 (   732 PWs)   bands (ev):

    -2.0722  -0.7007   2.3881   3.3454   8.2067   9.6705  12.7967  14.6075

          k = 0.6000 0.0000 0.8000 (   729 PWs)   bands (ev):

    -2.0747  -0.6764   1.9633   3.6202   8.5409  11.5105  12.4071  12.7208

          k =-0.2000-1.0000 0.0000 (   734 PWs)   bands (ev):

    -1.4367  -1.4367   3.0624   3.0624   7.9287   7.9287  14.9653  14.9654

          k = 0.6000-0.2000 1.0000 (   737 PWs)   bands (ev):

    -2.4961  -0.2173   2.3297   3.3330   9.7911  10.1487  10.8703  14.2418

          k = 0.5000-0.1000 0.9000 (   734 PWs)   bands (ev):

    -1.9743  -0.7348   2.1682   3.0766  10.0520  10.4037  11.8182  12.2885

          k =-0.4000-1.0000 0.0000 (   734 PWs)   bands (ev):

    -1.3385  -1.3385   2.5352   2.5352   9.8215   9.8215  12.3656  12.3657

     the Fermi energy is     6.4676 ev

!    total energy              =     -22.83867074 Ry
     estimated scf accuracy    <       0.00000013 Ry
     smearing contrib. (-TS)   =       0.00000813 Ry
     internal energy E=F+TS    =     -22.83867887 Ry

     The total energy is F=E-TS. E is the sum of the following terms:
     one-electron contribution =       5.29770703 Ry
     hartree contribution      =       1.08553447 Ry
     xc contribution           =     -12.32964917 Ry
     ewald contribution        =     -16.89227120 Ry

     convergence has been achieved in   4 iterations

     Writing output data file /home/jesus/Documentos/Nanociencia_DFT/test.save/
 
     init_run     :      0.66s CPU      0.73s WALL (       1 calls)
     electrons    :      4.23s CPU      4.46s WALL (       1 calls)

     Called by init_run:
     wfcinit      :      0.32s CPU      0.33s WALL (       1 calls)
     potinit      :      0.03s CPU      0.03s WALL (       1 calls)
     hinit0       :      0.25s CPU      0.28s WALL (       1 calls)

     Called by electrons:
     c_bands      :      3.26s CPU      3.30s WALL (       5 calls)
     sum_band     :      0.74s CPU      0.82s WALL (       5 calls)
     v_of_rho     :      0.10s CPU      0.10s WALL (       5 calls)
     newd         :      0.18s CPU      0.27s WALL (       5 calls)
     mix_rho      :      0.00s CPU      0.00s WALL (       5 calls)

     Called by c_bands:
     init_us_2    :      0.11s CPU      0.11s WALL (     517 calls)
     cegterg      :      2.76s CPU      2.79s WALL (     235 calls)

     Called by *egterg:
     cdiaghg      :      0.09s CPU      0.09s WALL (     923 calls)
     h_psi        :      2.73s CPU      2.77s WALL (    1017 calls)
     s_psi        :      0.06s CPU      0.06s WALL (    1017 calls)
     g_psi        :      0.01s CPU      0.01s WALL (     735 calls)

     Called by h_psi:
     h_psi:calbec :      0.07s CPU      0.07s WALL (    1017 calls)
     vloc_psi     :      2.59s CPU      2.62s WALL (    1017 calls)
     add_vuspsi   :      0.06s CPU      0.06s WALL (    1017 calls)

     General routines
     calbec       :      0.09s CPU      0.09s WALL (    1252 calls)
     fft          :      0.03s CPU      0.05s WALL (      64 calls)
     ffts         :      0.00s CPU      0.00s WALL (      10 calls)
     fftw         :      2.59s CPU      2.62s WALL (   12746 calls)
     interpolate  :      0.01s CPU      0.01s WALL (       5 calls)
 
     Parallel routines
 
     PWSCF        :      5.54s CPU      5.87s WALL

 
   This run was terminated on:  19:58:58  15Mar2021            

=------------------------------------------------------------------------------=
   JOB DONE.
=------------------------------------------------------------------------------=
