
     Program PWSCF v.6.6 starts on 15Mar2021 at 19:58:59 

     This program is part of the open-source Quantum ESPRESSO suite
     for quantum simulation of materials; please cite
         "P. Giannozzi et al., J. Phys.:Condens. Matter 21 395502 (2009);
         "P. Giannozzi et al., J. Phys.:Condens. Matter 29 465901 (2017);
          URL http://www.quantum-espresso.org", 
     in publications or presentations arising from this work. More details at
     http://www.quantum-espresso.org/quote

     Parallel version (MPI), running on     1 processors

     MPI processes distributed on     1 nodes
     Fft bands division:     nmany     =       1
     Waiting for input...
     Reading input from standard input
Warning: card &CELL ignored
Warning: card   CELL_DYNAMICS='BFGS', ignored
Warning: card   CELL_DOFREE='ALL', ignored
Warning: card / ignored

     Current dimensions of program PWSCF are:
     Max number of different atomic species (ntypx) = 10
     Max number of k-points (npk) =  40000
     Max angular momentum in pseudopotentials (lmaxx) =  3

     Subspace diagonalization in iterative solution of the eigenvalue problem:
     a serial algorithm will be used

 
     G-vector sticks info
     --------------------
     sticks:   dense  smooth     PW     G-vecs:    dense   smooth      PW
     Sum         859     433    139                16625     5961    1067
 


     bravais-lattice index     =            2
     lattice parameter (alat)  =      10.2045  a.u.
     unit-cell volume          =     265.6549 (a.u.)^3
     number of atoms/cell      =            2
     number of atomic types    =            1
     number of electrons       =         8.00
     number of Kohn-Sham states=            8
     kinetic-energy cutoff     =      30.0000  Ry
     charge density cutoff     =     240.0000  Ry
     convergence threshold     =      1.0E-06
     mixing beta               =       0.7000
     number of iterations used =            8  plain     mixing
     Exchange-correlation= PBE
                           (   1   4   3   4   0   0   0)

     celldm(1)=  10.204521  celldm(2)=   0.000000  celldm(3)=   0.000000
     celldm(4)=   0.000000  celldm(5)=   0.000000  celldm(6)=   0.000000

     crystal axes: (cart. coord. in units of alat)
               a(1) = (  -0.500000   0.000000   0.500000 )  
               a(2) = (   0.000000   0.500000   0.500000 )  
               a(3) = (  -0.500000   0.500000   0.000000 )  

     reciprocal axes: (cart. coord. in units 2 pi/alat)
               b(1) = ( -1.000000 -1.000000  1.000000 )  
               b(2) = (  1.000000  1.000000  1.000000 )  
               b(3) = ( -1.000000  1.000000 -1.000000 )  


     PseudoPot. # 1 for Si read from file:
     /home/jesus/Documentos/Nanociencia_DFT/pseudopotenciales/Si.pbe-n-rrkjus_psl.1.0.0.UPF
     MD5 check sum: fa25574f73a70a4139f2adfbefec430c
     Pseudo is Ultrasoft + core correction, Zval =  4.0
     Generated using "atomic" code by A. Dal Corso v.6.3
     Using radial grid of 1141 points,  6 beta functions with: 
                l(1) =   0
                l(2) =   0
                l(3) =   1
                l(4) =   1
                l(5) =   2
                l(6) =   2
     Q(r) pseudized with 0 coefficients 


     atomic species   valence    mass     pseudopotential
        Si             4.00    28.08550     Si( 1.00)

     48 Sym. Ops., with inversion, found (24 have fractional translation)



   Cartesian axes

     site n.     atom                  positions (alat units)
         1           Si  tau(   1) = (   0.0000000   0.0000000   0.0000000  )
         2           Si  tau(   2) = (  -0.2500000   0.2500000   0.2500000  )

     number of k points=    56  Methfessel-Paxton smearing, width (Ry)=  0.0100
                       cart. coord. in units 2pi/alat
        k(    1) = (   0.0000000   0.0000000   0.0000000), wk =   0.0015026
        k(    2) = (  -0.0909091   0.0909091  -0.0909091), wk =   0.0120210
        k(    3) = (  -0.1818182   0.1818182  -0.1818182), wk =   0.0120210
        k(    4) = (  -0.2727273   0.2727273  -0.2727273), wk =   0.0120210
        k(    5) = (  -0.3636364   0.3636364  -0.3636364), wk =   0.0120210
        k(    6) = (  -0.4545455   0.4545455  -0.4545455), wk =   0.0120210
        k(    7) = (   0.0000000   0.1818182   0.0000000), wk =   0.0090158
        k(    8) = (  -0.0909091   0.2727273  -0.0909091), wk =   0.0360631
        k(    9) = (  -0.1818182   0.3636364  -0.1818182), wk =   0.0360631
        k(   10) = (  -0.2727273   0.4545455  -0.2727273), wk =   0.0360631
        k(   11) = (  -0.3636364   0.5454545  -0.3636364), wk =   0.0360631
        k(   12) = (   0.5454545  -0.3636364   0.5454545), wk =   0.0360631
        k(   13) = (   0.4545455  -0.2727273   0.4545455), wk =   0.0360631
        k(   14) = (   0.3636364  -0.1818182   0.3636364), wk =   0.0360631
        k(   15) = (   0.2727273  -0.0909091   0.2727273), wk =   0.0360631
        k(   16) = (   0.1818182  -0.0000000   0.1818182), wk =   0.0180316
        k(   17) = (   0.0000000   0.3636364   0.0000000), wk =   0.0090158
        k(   18) = (  -0.0909091   0.4545455  -0.0909091), wk =   0.0360631
        k(   19) = (  -0.1818182   0.5454545  -0.1818182), wk =   0.0360631
        k(   20) = (  -0.2727273   0.6363636  -0.2727273), wk =   0.0360631
        k(   21) = (   0.6363636  -0.2727273   0.6363636), wk =   0.0360631
        k(   22) = (   0.5454545  -0.1818182   0.5454545), wk =   0.0360631
        k(   23) = (   0.4545455  -0.0909091   0.4545455), wk =   0.0360631
        k(   24) = (   0.3636364   0.0000000   0.3636364), wk =   0.0180316
        k(   25) = (   0.0000000   0.5454545   0.0000000), wk =   0.0090158
        k(   26) = (  -0.0909091   0.6363636  -0.0909091), wk =   0.0360631
        k(   27) = (  -0.1818182   0.7272727  -0.1818182), wk =   0.0360631
        k(   28) = (   0.7272727  -0.1818182   0.7272727), wk =   0.0360631
        k(   29) = (   0.6363636  -0.0909091   0.6363636), wk =   0.0360631
        k(   30) = (   0.5454545   0.0000000   0.5454545), wk =   0.0180316
        k(   31) = (   0.0000000   0.7272727   0.0000000), wk =   0.0090158
        k(   32) = (  -0.0909091   0.8181818  -0.0909091), wk =   0.0360631
        k(   33) = (   0.8181818  -0.0909091   0.8181818), wk =   0.0360631
        k(   34) = (   0.7272727   0.0000000   0.7272727), wk =   0.0180316
        k(   35) = (   0.0000000   0.9090909   0.0000000), wk =   0.0090158
        k(   36) = (   0.9090909  -0.0000000   0.9090909), wk =   0.0180316
        k(   37) = (  -0.1818182   0.3636364   0.0000000), wk =   0.0360631
        k(   38) = (  -0.2727273   0.4545455  -0.0909091), wk =   0.0721262
        k(   39) = (  -0.3636364   0.5454545  -0.1818182), wk =   0.0721262
        k(   40) = (   0.5454545  -0.3636364   0.7272727), wk =   0.0721262
        k(   41) = (  -0.1818182   0.5454545   0.0000000), wk =   0.0360631
        k(   42) = (  -0.2727273   0.6363636  -0.0909091), wk =   0.0721262
        k(   43) = (   0.6363636  -0.2727273   0.8181818), wk =   0.0721262
        k(   44) = (   0.5454545  -0.1818182   0.7272727), wk =   0.0721262
        k(   45) = (   0.4545455  -0.0909091   0.6363636), wk =   0.0721262
        k(   46) = (   0.3636364   0.0000000   0.5454545), wk =   0.0360631
        k(   47) = (  -0.1818182   0.7272727   0.0000000), wk =   0.0360631
        k(   48) = (   0.7272727  -0.1818182   0.9090909), wk =   0.0721262
        k(   49) = (   0.6363636  -0.0909091   0.8181818), wk =   0.0721262
        k(   50) = (   0.5454545   0.0000000   0.7272727), wk =   0.0360631
        k(   51) = (   0.8181818  -0.0909091   1.0000000), wk =   0.0360631
        k(   52) = (   0.7272727   0.0000000   0.9090909), wk =   0.0360631
        k(   53) = (   0.6363636  -0.2727273   1.0000000), wk =   0.0360631
        k(   54) = (   0.5454545  -0.1818182   0.9090909), wk =   0.0721262
        k(   55) = (   0.6363636  -0.0909091   1.0000000), wk =   0.0360631
        k(   56) = (   0.5454545   0.0000000   0.9090909), wk =   0.0360631

     Dense  grid:    16625 G-vectors     FFT dimensions: (  36,  36,  36)

     Smooth grid:     5961 G-vectors     FFT dimensions: (  32,  32,  32)

     Estimated max dynamical RAM per process >      64.50 MB

     Initial potential from superposition of free atoms

     starting charge    7.99888, renormalised to    8.00000
     Starting wfcs are    8 randomized atomic wfcs

     total cpu time spent up to now is        1.4 secs

     Self-consistent Calculation

     iteration #  1     ecut=    30.00 Ry     beta= 0.70
     Davidson diagonalization with overlap
     ethr =  1.00E-02,  avg # of iterations =  4.3

     Threshold (ethr) on eigenvalues was too large:
     Diagonalizing with lowered threshold

     Davidson diagonalization with overlap
     ethr =  6.64E-04,  avg # of iterations =  1.7

     total cpu time spent up to now is        3.4 secs

     total energy              =     -22.83606118 Ry
     estimated scf accuracy    <       0.05704685 Ry

     iteration #  2     ecut=    30.00 Ry     beta= 0.70
     Davidson diagonalization with overlap
     ethr =  7.13E-04,  avg # of iterations =  1.0

     total cpu time spent up to now is        4.3 secs

     total energy              =     -22.83854200 Ry
     estimated scf accuracy    <       0.00217409 Ry

     iteration #  3     ecut=    30.00 Ry     beta= 0.70
     Davidson diagonalization with overlap
     ethr =  2.72E-05,  avg # of iterations =  5.0

     total cpu time spent up to now is        5.4 secs

     total energy              =     -22.83868956 Ry
     estimated scf accuracy    <       0.00005070 Ry

     iteration #  4     ecut=    30.00 Ry     beta= 0.70
     Davidson diagonalization with overlap
     ethr =  6.34E-07,  avg # of iterations =  3.9

     total cpu time spent up to now is        6.5 secs

     End of self-consistent calculation

          k = 0.0000 0.0000 0.0000 (   725 PWs)   bands (ev):

    -5.6984   6.3819   6.3819   6.3819   8.9518   8.9518   8.9518   9.9377

          k =-0.0909 0.0909-0.0909 (   731 PWs)   bands (ev):

    -5.5885   5.3926   6.2108   6.2108   9.0118   9.2036   9.2036  10.6860

          k =-0.1818 0.1818-0.1818 (   739 PWs)   bands (ev):

    -5.2632   3.6964   5.8638   5.8638   8.7278   9.6837   9.6838  12.2542

          k =-0.2727 0.2727-0.2727 (   751 PWs)   bands (ev):

    -4.7386   2.0134   5.5355   5.5355   8.3878   9.9253   9.9256  13.7895

          k =-0.3636 0.3636-0.3636 (   751 PWs)   bands (ev):

    -4.0656   0.5336   5.3012   5.3012   8.1301   9.8507   9.8508  14.3218

          k =-0.4545 0.4545-0.4545 (   742 PWs)   bands (ev):

    -3.4396  -0.5035   5.1819   5.1819   7.9957   9.7341   9.7341  14.1643

          k = 0.0000 0.1818 0.0000 (   733 PWs)   bands (ev):

    -5.5517   5.5921   5.8755   5.8755   8.6267   9.6379   9.6379  10.6456

          k =-0.0909 0.2727-0.0909 (   733 PWs)   bands (ev):

    -5.2975   4.2096   5.4707   5.6682   8.6678   9.7445  10.2410  11.4477

          k =-0.1818 0.3636-0.1818 (   748 PWs)   bands (ev):

    -4.8368   2.5628   5.1468   5.2909   8.8211   9.7190  10.5889  11.7640

          k =-0.2727 0.4545-0.2727 (   740 PWs)   bands (ev):

    -4.2037   1.0292   4.9033   4.9583   8.6888   9.7186  10.5039  12.5486

          k =-0.3636 0.5455-0.3636 (   747 PWs)   bands (ev):

    -3.5186  -0.1877   4.5996   4.9190   8.5568   9.6593  10.2526  13.8147

          k = 0.5455-0.3636 0.5455 (   740 PWs)   bands (ev):

    -3.2404  -0.5996   4.4170   5.0241   8.5376   9.7083  10.0608  14.5103

          k = 0.4545-0.2727 0.4545 (   743 PWs)   bands (ev):

    -3.7376   0.1674   4.3774   5.2567   8.6449   9.9020   9.9854  14.2283

          k = 0.3636-0.1818 0.3636 (   744 PWs)   bands (ev):

    -4.4313   1.5204   4.4971   5.5873   8.8649   9.9306  10.1296  13.1878

          k = 0.2727-0.0909 0.2727 (   739 PWs)   bands (ev):

    -5.0130   3.0973   4.7942   5.9586   9.1602   9.6580  10.0288  12.3317

          k = 0.1818-0.0000 0.1818 (   735 PWs)   bands (ev):

    -5.4066   4.5899   5.3648   6.2384   9.2524   9.3944   9.4339  11.5243

          k = 0.0000 0.3636 0.0000 (   737 PWs)   bands (ev):

    -5.1145   4.0905   5.0276   5.0276   7.9671  10.5631  11.0146  11.0147

          k =-0.0909 0.4545-0.0909 (   736 PWs)   bands (ev):

    -4.7212   2.9068   4.6096   4.6786   8.0215  10.1087  11.3070  11.6038

          k =-0.1818 0.5455-0.1818 (   741 PWs)   bands (ev):

    -4.1403   1.5046   4.0724   4.4795   8.2593  10.4720  11.1141  11.6669

          k =-0.2727 0.6364-0.2727 (   739 PWs)   bands (ev):

    -3.4460   0.2397   3.5885   4.4480   8.2986  10.8915  11.3951  11.7041

          k = 0.6364-0.2727 0.6364 (   736 PWs)   bands (ev):

    -2.9493  -0.4893   3.2458   4.5828   8.4053  10.7581  11.0944  13.3562

          k = 0.5455-0.1818 0.5455 (   735 PWs)   bands (ev):

    -3.2430  -0.0667   3.0862   4.8675   8.6720  10.7401  10.8705  14.2266

          k = 0.4545-0.0909 0.4545 (   742 PWs)   bands (ev):

    -3.9300   1.0765   3.1619   5.2634   9.0609  10.6378  10.7811  12.8286

          k = 0.3636 0.0000 0.3636 (   732 PWs)   bands (ev):

    -4.5579   2.2915   3.6467   5.6867   9.4174  10.1504  10.4666  12.1372

          k = 0.0000 0.5455 0.0000 (   729 PWs)   bands (ev):

    -4.3952   2.4527   4.2937   4.2937   7.3632   9.1689  12.6050  12.6050

          k =-0.0909 0.6364-0.0909 (   736 PWs)   bands (ev):

    -3.8731   1.4812   3.7453   4.0586   7.4963   8.8749  12.9153  13.0658

          k =-0.1818 0.7273-0.1818 (   731 PWs)   bands (ev):

    -3.2010   0.4303   3.0038   3.9970   7.6914   9.6502  12.7676  12.9094

          k = 0.7273-0.1818 0.7273 (   730 PWs)   bands (ev):

    -2.5709  -0.3932   2.4199   4.1124   7.8277  11.1454  12.5702  12.6093

          k = 0.6364-0.0909 0.6364 (   728 PWs)   bands (ev):

    -2.6269  -0.3130   2.1266   4.3930   8.1270  12.2214  12.2470  13.2037

          k = 0.5455 0.0000 0.5455 (   732 PWs)   bands (ev):

    -3.2766   0.4632   2.2877   4.8041   8.5892  11.6295  11.9763  12.9167

          k = 0.0000 0.7273 0.0000 (   733 PWs)   bands (ev):

    -3.4096   0.8112   3.7790   3.7790   6.9952   8.0103  14.2926  14.2926

          k =-0.0909 0.8182-0.0909 (   734 PWs)   bands (ev):

    -2.7767  -0.0164   3.2293   3.6725   7.2025   8.0345  14.6096  14.6433

          k = 0.8182-0.0909 0.8182 (   734 PWs)   bands (ev):

    -2.0874  -0.7461   2.4291   3.7473   7.3709   9.2473  14.3135  14.5178

          k = 0.7273 0.0000 0.7273 (   730 PWs)   bands (ev):

    -2.0158  -0.7835   1.9311   3.9965   7.6558  10.9915  13.6418  14.1948

          k = 0.0000 0.9091 0.0000 (   740 PWs)   bands (ev):

    -2.1837  -0.7578   3.5161   3.5161   6.9468   7.2717  16.0242  16.0242

          k = 0.9091-0.0000 0.9091 (   742 PWs)   bands (ev):

    -1.5248  -1.4136   3.0600   3.5418   7.1278   7.7260  15.9606  16.2465

          k =-0.1818 0.3636 0.0000 (   738 PWs)   bands (ev):

    -4.9742   3.3500   4.5086   5.5497   8.7243  10.0851  10.8031  11.1773

          k =-0.2727 0.4545-0.0909 (   746 PWs)   bands (ev):

    -4.4525   2.0062   3.9426   5.2225   9.0494  10.0077  11.1120  11.3047

          k =-0.3636 0.5455-0.1818 (   743 PWs)   bands (ev):

    -3.7813   0.6353   3.6888   4.8696   9.1028   9.7512  11.2247  12.1582

          k = 0.5455-0.3636 0.7273 (   734 PWs)   bands (ev):

    -3.1509  -0.3694   3.5921   4.6527   9.0992   9.5144  11.1505  13.6558

          k =-0.1818 0.5455 0.0000 (   740 PWs)   bands (ev):

    -4.2646   2.0556   3.7802   4.5173   8.1496   9.6856  11.4304  12.4835

          k =-0.2727 0.6364-0.0909 (   742 PWs)   bands (ev):

    -3.6357   0.9544   3.1985   4.1942   8.5119  10.1023  11.1152  12.8753

          k = 0.6364-0.2727 0.8182 (   734 PWs)   bands (ev):

    -2.9472  -0.0804   2.8110   4.0341   8.6448  10.6790  11.5236  12.8308

          k = 0.5455-0.1818 0.7273 (   733 PWs)   bands (ev):

    -2.6719  -0.4408   2.5762   4.1264   8.8647  10.4162  12.7073  13.2186

          k = 0.4545-0.0909 0.6364 (   734 PWs)   bands (ev):

    -3.1921   0.2681   2.5596   4.4296   9.2404  10.2202  11.9871  12.6241

          k = 0.3636 0.0000 0.5455 (   740 PWs)   bands (ev):

    -3.8817   1.2705   2.9389   4.8551   9.7037   9.8010  11.0643  12.1795

          k =-0.1818 0.7273 0.0000 (   744 PWs)   bands (ev):

    -3.2976   0.6719   3.2961   3.6944   7.7813   8.6275  12.8277  14.2560

          k = 0.7273-0.1818 0.9091 (   738 PWs)   bands (ev):

    -2.6031  -0.1648   2.6364   3.5119   8.1252   9.4663  12.4662  14.6313

          k = 0.6364-0.0909 0.8182 (   729 PWs)   bands (ev):

    -2.1198  -0.6772   2.1014   3.6315   8.3438  11.0521  12.1656  13.7857

          k = 0.5455 0.0000 0.7273 (   734 PWs)   bands (ev):

    -2.5145  -0.2700   1.9945   3.9622   8.7255  11.4921  12.2549  13.1464

          k = 0.8182-0.0909 1.0000 (   734 PWs)   bands (ev):

    -2.1075  -0.7531   3.1004   3.2233   7.7043   7.9719  14.3774  15.8644

          k = 0.7273 0.0000 0.9091 (   734 PWs)   bands (ev):

    -1.5880  -1.2095   2.4191   3.2978   7.9878   9.2594  13.9138  14.1478

          k = 0.6364-0.2727 1.0000 (   738 PWs)   bands (ev):

    -2.9792   0.2686   2.5203   3.7153   9.4692  10.0844  10.7479  14.1428

          k = 0.5455-0.1818 0.9091 (   732 PWs)   bands (ev):

    -2.3292  -0.4465   2.2345   3.3865   9.8248  10.2227  11.5122  13.4086

          k = 0.6364-0.0909 1.0000 (   731 PWs)   bands (ev):

    -1.9143  -0.7945   2.4665   2.8548   9.3784   9.5805  12.0483  13.6553

          k = 0.5455 0.0000 0.9091 (   731 PWs)   bands (ev):

    -1.7075  -0.9634   2.1774   2.8930   9.7271  11.0054  11.8163  11.8415

     the Fermi energy is     6.8544 ev

!    total energy              =     -22.83869764 Ry
     estimated scf accuracy    <       0.00000010 Ry
     smearing contrib. (-TS)   =       0.00000844 Ry
     internal energy E=F+TS    =     -22.83870607 Ry

     The total energy is F=E-TS. E is the sum of the following terms:
     one-electron contribution =       5.29772525 Ry
     hartree contribution      =       1.08544770 Ry
     xc contribution           =     -12.32960782 Ry
     ewald contribution        =     -16.89227120 Ry

     convergence has been achieved in   4 iterations

     Writing output data file /home/jesus/Documentos/Nanociencia_DFT/test.save/
 
     init_run     :      0.66s CPU      0.73s WALL (       1 calls)
     electrons    :      4.94s CPU      5.17s WALL (       1 calls)

     Called by init_run:
     wfcinit      :      0.33s CPU      0.34s WALL (       1 calls)
     potinit      :      0.03s CPU      0.03s WALL (       1 calls)
     hinit0       :      0.26s CPU      0.27s WALL (       1 calls)

     Called by electrons:
     c_bands      :      3.89s CPU      3.95s WALL (       5 calls)
     sum_band     :      0.84s CPU      0.93s WALL (       5 calls)
     v_of_rho     :      0.10s CPU      0.10s WALL (       5 calls)
     newd         :      0.16s CPU      0.27s WALL (       5 calls)
     mix_rho      :      0.00s CPU      0.01s WALL (       5 calls)

     Called by c_bands:
     init_us_2    :      0.13s CPU      0.13s WALL (     616 calls)
     cegterg      :      3.28s CPU      3.33s WALL (     280 calls)

     Called by *egterg:
     cdiaghg      :      0.11s CPU      0.11s WALL (    1119 calls)
     h_psi        :      3.19s CPU      3.24s WALL (    1231 calls)
     s_psi        :      0.07s CPU      0.07s WALL (    1231 calls)
     g_psi        :      0.01s CPU      0.01s WALL (     895 calls)

     Called by h_psi:
     h_psi:calbec :      0.09s CPU      0.09s WALL (    1231 calls)
     vloc_psi     :      3.02s CPU      3.07s WALL (    1231 calls)
     add_vuspsi   :      0.07s CPU      0.07s WALL (    1231 calls)

     General routines
     calbec       :      0.10s CPU      0.11s WALL (    1511 calls)
     fft          :      0.03s CPU      0.05s WALL (      64 calls)
     ffts         :      0.00s CPU      0.00s WALL (      10 calls)
     fftw         :      3.03s CPU      3.08s WALL (   15220 calls)
     interpolate  :      0.00s CPU      0.00s WALL (       5 calls)
 
     Parallel routines
 
     PWSCF        :      6.25s CPU      6.56s WALL

 
   This run was terminated on:  19:59: 5  15Mar2021            

=------------------------------------------------------------------------------=
   JOB DONE.
=------------------------------------------------------------------------------=
