
     Program PWSCF v.6.6 starts on 15Mar2021 at 19:59: 5 

     This program is part of the open-source Quantum ESPRESSO suite
     for quantum simulation of materials; please cite
         "P. Giannozzi et al., J. Phys.:Condens. Matter 21 395502 (2009);
         "P. Giannozzi et al., J. Phys.:Condens. Matter 29 465901 (2017);
          URL http://www.quantum-espresso.org", 
     in publications or presentations arising from this work. More details at
     http://www.quantum-espresso.org/quote

     Parallel version (MPI), running on     1 processors

     MPI processes distributed on     1 nodes
     Fft bands division:     nmany     =       1
     Waiting for input...
     Reading input from standard input
Warning: card &CELL ignored
Warning: card   CELL_DYNAMICS='BFGS', ignored
Warning: card   CELL_DOFREE='ALL', ignored
Warning: card / ignored

     Current dimensions of program PWSCF are:
     Max number of different atomic species (ntypx) = 10
     Max number of k-points (npk) =  40000
     Max angular momentum in pseudopotentials (lmaxx) =  3

     Subspace diagonalization in iterative solution of the eigenvalue problem:
     a serial algorithm will be used

 
     G-vector sticks info
     --------------------
     sticks:   dense  smooth     PW     G-vecs:    dense   smooth      PW
     Sum         859     433    151                16625     5961    1139
 


     bravais-lattice index     =            2
     lattice parameter (alat)  =      10.2045  a.u.
     unit-cell volume          =     265.6549 (a.u.)^3
     number of atoms/cell      =            2
     number of atomic types    =            1
     number of electrons       =         8.00
     number of Kohn-Sham states=            8
     kinetic-energy cutoff     =      30.0000  Ry
     charge density cutoff     =     240.0000  Ry
     convergence threshold     =      1.0E-06
     mixing beta               =       0.7000
     number of iterations used =            8  plain     mixing
     Exchange-correlation= PBE
                           (   1   4   3   4   0   0   0)

     celldm(1)=  10.204521  celldm(2)=   0.000000  celldm(3)=   0.000000
     celldm(4)=   0.000000  celldm(5)=   0.000000  celldm(6)=   0.000000

     crystal axes: (cart. coord. in units of alat)
               a(1) = (  -0.500000   0.000000   0.500000 )  
               a(2) = (   0.000000   0.500000   0.500000 )  
               a(3) = (  -0.500000   0.500000   0.000000 )  

     reciprocal axes: (cart. coord. in units 2 pi/alat)
               b(1) = ( -1.000000 -1.000000  1.000000 )  
               b(2) = (  1.000000  1.000000  1.000000 )  
               b(3) = ( -1.000000  1.000000 -1.000000 )  


     PseudoPot. # 1 for Si read from file:
     /home/jesus/Documentos/Nanociencia_DFT/pseudopotenciales/Si.pbe-n-rrkjus_psl.1.0.0.UPF
     MD5 check sum: fa25574f73a70a4139f2adfbefec430c
     Pseudo is Ultrasoft + core correction, Zval =  4.0
     Generated using "atomic" code by A. Dal Corso v.6.3
     Using radial grid of 1141 points,  6 beta functions with: 
                l(1) =   0
                l(2) =   0
                l(3) =   1
                l(4) =   1
                l(5) =   2
                l(6) =   2
     Q(r) pseudized with 0 coefficients 


     atomic species   valence    mass     pseudopotential
        Si             4.00    28.08550     Si( 1.00)

     48 Sym. Ops., with inversion, found (24 have fractional translation)



   Cartesian axes

     site n.     atom                  positions (alat units)
         1           Si  tau(   1) = (   0.0000000   0.0000000   0.0000000  )
         2           Si  tau(   2) = (  -0.2500000   0.2500000   0.2500000  )

     number of k points=    72  Methfessel-Paxton smearing, width (Ry)=  0.0100
                       cart. coord. in units 2pi/alat
        k(    1) = (   0.0000000   0.0000000   0.0000000), wk =   0.0011574
        k(    2) = (  -0.0833333   0.0833333  -0.0833333), wk =   0.0092593
        k(    3) = (  -0.1666667   0.1666667  -0.1666667), wk =   0.0092593
        k(    4) = (  -0.2500000   0.2500000  -0.2500000), wk =   0.0092593
        k(    5) = (  -0.3333333   0.3333333  -0.3333333), wk =   0.0092593
        k(    6) = (  -0.4166667   0.4166667  -0.4166667), wk =   0.0092593
        k(    7) = (   0.5000000  -0.5000000   0.5000000), wk =   0.0046296
        k(    8) = (   0.0000000   0.1666667   0.0000000), wk =   0.0069444
        k(    9) = (  -0.0833333   0.2500000  -0.0833333), wk =   0.0277778
        k(   10) = (  -0.1666667   0.3333333  -0.1666667), wk =   0.0277778
        k(   11) = (  -0.2500000   0.4166667  -0.2500000), wk =   0.0277778
        k(   12) = (  -0.3333333   0.5000000  -0.3333333), wk =   0.0277778
        k(   13) = (   0.5833333  -0.4166667   0.5833333), wk =   0.0277778
        k(   14) = (   0.5000000  -0.3333333   0.5000000), wk =   0.0277778
        k(   15) = (   0.4166667  -0.2500000   0.4166667), wk =   0.0277778
        k(   16) = (   0.3333333  -0.1666667   0.3333333), wk =   0.0277778
        k(   17) = (   0.2500000  -0.0833333   0.2500000), wk =   0.0277778
        k(   18) = (   0.1666667  -0.0000000   0.1666667), wk =   0.0138889
        k(   19) = (   0.0000000   0.3333333   0.0000000), wk =   0.0069444
        k(   20) = (  -0.0833333   0.4166667  -0.0833333), wk =   0.0277778
        k(   21) = (  -0.1666667   0.5000000  -0.1666667), wk =   0.0277778
        k(   22) = (  -0.2500000   0.5833333  -0.2500000), wk =   0.0277778
        k(   23) = (   0.6666667  -0.3333333   0.6666667), wk =   0.0277778
        k(   24) = (   0.5833333  -0.2500000   0.5833333), wk =   0.0277778
        k(   25) = (   0.5000000  -0.1666667   0.5000000), wk =   0.0277778
        k(   26) = (   0.4166667  -0.0833333   0.4166667), wk =   0.0277778
        k(   27) = (   0.3333333   0.0000000   0.3333333), wk =   0.0138889
        k(   28) = (   0.0000000   0.5000000   0.0000000), wk =   0.0069444
        k(   29) = (  -0.0833333   0.5833333  -0.0833333), wk =   0.0277778
        k(   30) = (  -0.1666667   0.6666667  -0.1666667), wk =   0.0277778
        k(   31) = (   0.7500000  -0.2500000   0.7500000), wk =   0.0277778
        k(   32) = (   0.6666667  -0.1666667   0.6666667), wk =   0.0277778
        k(   33) = (   0.5833333  -0.0833333   0.5833333), wk =   0.0277778
        k(   34) = (   0.5000000   0.0000000   0.5000000), wk =   0.0138889
        k(   35) = (   0.0000000   0.6666667   0.0000000), wk =   0.0069444
        k(   36) = (  -0.0833333   0.7500000  -0.0833333), wk =   0.0277778
        k(   37) = (   0.8333333  -0.1666667   0.8333333), wk =   0.0277778
        k(   38) = (   0.7500000  -0.0833333   0.7500000), wk =   0.0277778
        k(   39) = (   0.6666667  -0.0000000   0.6666667), wk =   0.0138889
        k(   40) = (   0.0000000   0.8333333   0.0000000), wk =   0.0069444
        k(   41) = (   0.9166667  -0.0833333   0.9166667), wk =   0.0277778
        k(   42) = (   0.8333333   0.0000000   0.8333333), wk =   0.0138889
        k(   43) = (   0.0000000  -1.0000000   0.0000000), wk =   0.0034722
        k(   44) = (  -0.1666667   0.3333333   0.0000000), wk =   0.0277778
        k(   45) = (  -0.2500000   0.4166667  -0.0833333), wk =   0.0555556
        k(   46) = (  -0.3333333   0.5000000  -0.1666667), wk =   0.0555556
        k(   47) = (   0.5833333  -0.4166667   0.7500000), wk =   0.0555556
        k(   48) = (   0.5000000  -0.3333333   0.6666667), wk =   0.0277778
        k(   49) = (  -0.1666667   0.5000000   0.0000000), wk =   0.0277778
        k(   50) = (  -0.2500000   0.5833333  -0.0833333), wk =   0.0555556
        k(   51) = (   0.6666667  -0.3333333   0.8333333), wk =   0.0555556
        k(   52) = (   0.5833333  -0.2500000   0.7500000), wk =   0.0555556
        k(   53) = (   0.5000000  -0.1666667   0.6666667), wk =   0.0555556
        k(   54) = (   0.4166667  -0.0833333   0.5833333), wk =   0.0555556
        k(   55) = (   0.3333333   0.0000000   0.5000000), wk =   0.0277778
        k(   56) = (  -0.1666667   0.6666667  -0.0000000), wk =   0.0277778
        k(   57) = (   0.7500000  -0.2500000   0.9166667), wk =   0.0555556
        k(   58) = (   0.6666667  -0.1666667   0.8333333), wk =   0.0555556
        k(   59) = (   0.5833333  -0.0833333   0.7500000), wk =   0.0555556
        k(   60) = (   0.5000000   0.0000000   0.6666667), wk =   0.0277778
        k(   61) = (   0.8333333  -0.1666667   1.0000000), wk =   0.0277778
        k(   62) = (   0.7500000  -0.0833333   0.9166667), wk =   0.0555556
        k(   63) = (   0.6666667   0.0000000   0.8333333), wk =   0.0277778
        k(   64) = (  -0.1666667  -1.0000000  -0.0000000), wk =   0.0138889
        k(   65) = (   0.6666667  -0.3333333   1.0000000), wk =   0.0277778
        k(   66) = (   0.5833333  -0.2500000   0.9166667), wk =   0.0555556
        k(   67) = (   0.5000000  -0.1666667   0.8333333), wk =   0.0277778
        k(   68) = (   0.6666667  -0.1666667   1.0000000), wk =   0.0277778
        k(   69) = (   0.5833333  -0.0833333   0.9166667), wk =   0.0555556
        k(   70) = (   0.5000000   0.0000000   0.8333333), wk =   0.0277778
        k(   71) = (  -0.3333333  -1.0000000   0.0000000), wk =   0.0138889
        k(   72) = (  -0.5000000  -1.0000000   0.0000000), wk =   0.0069444

     Dense  grid:    16625 G-vectors     FFT dimensions: (  36,  36,  36)

     Smooth grid:     5961 G-vectors     FFT dimensions: (  32,  32,  32)

     Estimated max dynamical RAM per process >      65.94 MB

     Initial potential from superposition of free atoms

     starting charge    7.99888, renormalised to    8.00000
     Starting wfcs are    8 randomized atomic wfcs

     total cpu time spent up to now is        1.5 secs

     Self-consistent Calculation

     iteration #  1     ecut=    30.00 Ry     beta= 0.70
     Davidson diagonalization with overlap
     ethr =  1.00E-02,  avg # of iterations =  4.1

     Threshold (ethr) on eigenvalues was too large:
     Diagonalizing with lowered threshold

     Davidson diagonalization with overlap
     ethr =  6.64E-04,  avg # of iterations =  1.8

     total cpu time spent up to now is        4.1 secs

     total energy              =     -22.83607212 Ry
     estimated scf accuracy    <       0.05705915 Ry

     iteration #  2     ecut=    30.00 Ry     beta= 0.70
     Davidson diagonalization with overlap
     ethr =  7.13E-04,  avg # of iterations =  1.1

     total cpu time spent up to now is        5.1 secs

     total energy              =     -22.83856236 Ry
     estimated scf accuracy    <       0.00217015 Ry

     iteration #  3     ecut=    30.00 Ry     beta= 0.70
     Davidson diagonalization with overlap
     ethr =  2.71E-05,  avg # of iterations =  5.1

     total cpu time spent up to now is        6.6 secs

     total energy              =     -22.83870373 Ry
     estimated scf accuracy    <       0.00005059 Ry

     iteration #  4     ecut=    30.00 Ry     beta= 0.70
     Davidson diagonalization with overlap
     ethr =  6.32E-07,  avg # of iterations =  3.9

     total cpu time spent up to now is        7.9 secs

     End of self-consistent calculation

          k = 0.0000 0.0000 0.0000 (   725 PWs)   bands (ev):

    -5.6985   6.3817   6.3817   6.3817   8.9516   8.9516   8.9516   9.9374

          k =-0.0833 0.0833-0.0833 (   731 PWs)   bands (ev):

    -5.6062   5.5215   6.2352   6.2352   9.0220   9.1671   9.1671  10.5733

          k =-0.1667 0.1667-0.1667 (   730 PWs)   bands (ev):

    -5.3321   3.9856   5.9236   5.9236   8.7856   9.6092   9.6092  11.9821

          k =-0.2500 0.2500-0.2500 (   745 PWs)   bands (ev):

    -4.8869   2.4208   5.6101   5.6101   8.4678   9.9021   9.9022  13.4389

          k =-0.3333 0.3333-0.3333 (   751 PWs)   bands (ev):

    -4.3002   0.9941   5.3668   5.3668   8.2033   9.8935   9.8935  14.3174

          k =-0.4167 0.4167-0.4167 (   739 PWs)   bands (ev):

    -3.6672  -0.1545   5.2171   5.2171   8.0355   9.7734   9.7735  14.2238

          k = 0.5000-0.5000 0.5000 (   754 PWs)   bands (ev):

    -3.3243  -0.6709   5.1668   5.1668   7.9784   9.7161   9.7161  14.1370

          k = 0.0000 0.1667 0.0000 (   733 PWs)   bands (ev):

    -5.5753   5.6999   5.9422   5.9422   8.6735   9.5423   9.5424  10.5613

          k =-0.0833 0.2500-0.0833 (   734 PWs)   bands (ev):

    -5.3612   4.4495   5.5721   5.7734   8.6988   9.6586  10.0891  11.3950

          k =-0.1667 0.3333-0.1667 (   741 PWs)   bands (ev):

    -4.9716   2.9281   5.2547   5.4466   8.8466   9.6386  10.4753  11.8161

          k =-0.2500 0.4167-0.2500 (   742 PWs)   bands (ev):

    -4.4270   1.4715   5.0427   5.0890   8.7197   9.6974  10.4891  12.3832

          k =-0.3333 0.5000-0.3333 (   740 PWs)   bands (ev):

    -3.7898   0.2217   4.7886   4.9528   8.5596   9.6508  10.2833  13.4479

          k = 0.5833-0.4167 0.5833 (   743 PWs)   bands (ev):

    -3.2871  -0.5638   4.5799   4.9853   8.4826   9.6467  10.0769  14.3500

          k = 0.5000-0.3333 0.5000 (   740 PWs)   bands (ev):

    -3.4112  -0.3820   4.4817   5.1315   8.5126   9.7633   9.9646  14.4581

          k = 0.4167-0.2500 0.4167 (   745 PWs)   bands (ev):

    -4.0059   0.6083   4.5073   5.3752   8.6479   9.9364   9.9783  13.9384

          k = 0.3333-0.1667 0.3333 (   744 PWs)   bands (ev):

    -4.6244   1.9427   4.6668   5.6901   8.8744   9.8633  10.1423  12.9777

          k = 0.2500-0.0833 0.2500 (   739 PWs)   bands (ev):

    -5.1209   3.4219   4.9721   6.0246   9.1541   9.5661   9.9404  12.2257

          k = 0.1667-0.0000 0.1667 (   739 PWs)   bands (ev):

    -5.4531   4.7912   5.4997   6.2632   9.2043   9.3675   9.3682  11.3483

          k = 0.0000 0.3333 0.0000 (   737 PWs)   bands (ev):

    -5.2074   4.3561   5.1660   5.1660   8.0805  10.7504  10.7645  10.7645

          k =-0.0833 0.4167-0.0833 (   736 PWs)   bands (ev):

    -4.8754   3.2505   4.8195   4.8267   8.1012  10.3179  11.0970  11.3334

          k =-0.1667 0.5000-0.1667 (   742 PWs)   bands (ev):

    -4.3797   1.9174   4.3634   4.6055   8.3452  10.4910  10.9348  11.4937

          k =-0.2500 0.5833-0.2500 (   738 PWs)   bands (ev):

    -3.7614   0.6615   3.9189   4.5212   8.3913  10.6951  11.3021  11.4622

          k = 0.6667-0.3333 0.6667 (   732 PWs)   bands (ev):

    -3.1652  -0.2912   3.5689   4.5768   8.4261  10.5450  11.0208  12.8539

          k = 0.5833-0.2500 0.5833 (   741 PWs)   bands (ev):

    -3.0475  -0.4551   3.3502   4.7644   8.5784  10.4924  10.7906  14.4288

          k = 0.5000-0.1667 0.5000 (   734 PWs)   bands (ev):

    -3.5586   0.3200   3.2898   5.0650   8.8552  10.5412  10.6265  13.7585

          k = 0.4167-0.0833 0.4167 (   740 PWs)   bands (ev):

    -4.1944   1.4878   3.4314   5.4397   9.2013  10.4043  10.5921  12.5909

          k = 0.3333 0.0000 0.3333 (   740 PWs)   bands (ev):

    -4.7350   2.6474   3.9247   5.8102   9.4727   9.9595  10.2615  12.1182

          k = 0.0000 0.5000 0.0000 (   729 PWs)   bands (ev):

    -4.6009   2.8655   4.4585   4.4585   7.4966   9.5138  12.1959  12.1959

          k =-0.0833 0.5833-0.0833 (   732 PWs)   bands (ev):

    -4.1577   1.9420   3.9863   4.2087   7.5811   9.1526  12.4981  12.6788

          k =-0.1667 0.6667-0.1667 (   738 PWs)   bands (ev):

    -3.5730   0.8949   3.3447   4.1005   7.7980   9.6347  12.3726  12.6253

          k = 0.7500-0.2500 0.7500 (   735 PWs)   bands (ev):

    -2.9368  -0.0498   2.7903   4.1404   7.8858  10.8457  12.2112  12.3385

          k = 0.6667-0.1667 0.6667 (   735 PWs)   bands (ev):

    -2.6043  -0.4751   2.4209   4.3238   8.0697  11.8786  12.0369  12.6258

          k = 0.5833-0.0833 0.5833 (   734 PWs)   bands (ev):

    -2.9887   0.0303   2.2964   4.6340   8.4028  11.7391  11.8746  13.6518

          k = 0.5000 0.0000 0.5000 (   742 PWs)   bands (ev):

    -3.6227   0.8677   2.5619   5.0334   8.8426  11.2067  11.5579  12.6182

          k = 0.0000 0.6667 0.0000 (   733 PWs)   bands (ev):

    -3.7665   1.3538   3.9234   3.9234   7.0854   8.3518  13.7216  13.7216

          k =-0.0833 0.7500-0.0833 (   738 PWs)   bands (ev):

    -3.2235   0.5570   3.4271   3.7789   7.2481   8.2236  14.0601  14.0877

          k = 0.8333-0.1667 0.8333 (   737 PWs)   bands (ev):

    -2.5834  -0.2231   2.6832   3.7856   7.4202   9.0973  13.8945  13.9590

          k = 0.7500-0.0833 0.7500 (   732 PWs)   bands (ev):

    -2.1028  -0.7247   2.0923   3.9420   7.5999  10.5617  13.5398  13.7911

          k = 0.6667-0.0000 0.6667 (   730 PWs)   bands (ev):

    -2.3796  -0.4355   1.8865   4.2355   7.9341  12.2054  12.9176  13.5504

          k = 0.0000 0.8333 0.0000 (   745 PWs)   bands (ev):

    -2.7217  -0.1178   3.5938   3.5938   6.9242   7.5273  15.3053  15.3054

          k = 0.9167-0.0833 0.9167 (   736 PWs)   bands (ev):

    -2.0983  -0.8155   3.1514   3.5598   7.1250   7.7021  15.5487  15.6661

          k = 0.8333 0.0000 0.8333 (   738 PWs)   bands (ev):

    -1.6312  -1.2274   2.4643   3.6789   7.2867   8.9225  14.9994  15.5748

          k = 0.0000-1.0000 0.0000 (   740 PWs)   bands (ev):

    -1.4928  -1.4928   3.4828   3.4828   7.0597   7.0597  16.6310  16.6311

          k =-0.1667 0.3333 0.0000 (   738 PWs)   bands (ev):

    -5.0886   3.6490   4.7163   5.6678   8.7246   9.9943  10.5726  11.3239

          k =-0.2500 0.4167-0.0833 (   737 PWs)   bands (ev):

    -4.6455   2.3896   4.1800   5.3875   9.0149   9.9513  10.9806  11.2921

          k =-0.3333 0.5000-0.1667 (   744 PWs)   bands (ev):

    -4.0607   1.0663   3.9117   5.0533   9.0708   9.7949  11.0360  11.9560

          k = 0.5833-0.4167 0.7500 (   739 PWs)   bands (ev):

    -3.4266  -0.0433   3.7861   4.8012   9.0263   9.5827  10.9496  13.1926

          k = 0.5000-0.3333 0.6667 (   738 PWs)   bands (ev):

    -3.0794  -0.5528   3.7514   4.7072   9.0110   9.4880  10.9026  14.5271

          k =-0.1667 0.5000 0.0000 (   736 PWs)   bands (ev):

    -4.4886   2.4511   4.0100   4.7294   8.1679   9.9215  11.2482  12.0735

          k =-0.2500 0.5833-0.0833 (   739 PWs)   bands (ev):

    -3.9475   1.3839   3.4675   4.4339   8.5038  10.1389  10.9926  12.4612

          k = 0.6667-0.3333 0.8333 (   735 PWs)   bands (ev):

    -3.3106   0.3089   3.1100   4.2178   8.6248  10.6183  11.2332  12.4410

          k = 0.5833-0.2500 0.7500 (   733 PWs)   bands (ev):

    -2.8019  -0.4138   2.8618   4.1993   8.7559  10.3449  12.3270  12.7177

          k = 0.5000-0.1667 0.6667 (   737 PWs)   bands (ev):

    -2.9410  -0.2222   2.7396   4.3758   9.0128  10.1504  12.2505  13.0944

          k = 0.4167-0.0833 0.5833 (   739 PWs)   bands (ev):

    -3.5436   0.6738   2.8099   4.6995   9.3841  10.0044  11.7178  12.1925

          k = 0.3333 0.0000 0.5000 (   744 PWs)   bands (ev):

    -4.1567   1.6695   3.2275   5.0896   9.6107   9.7804  11.0748  11.7675

          k =-0.1667 0.6667-0.0000 (   731 PWs)   bands (ev):

    -3.6659   1.1750   3.4925   3.9277   7.7625   8.8481  12.5104  13.6691

          k = 0.7500-0.2500 0.9167 (   737 PWs)   bands (ev):

    -3.0500   0.3271   2.8938   3.7058   8.0973   9.3903  12.2043  14.0429

          k = 0.6667-0.1667 0.8333 (   730 PWs)   bands (ev):

    -2.4483  -0.4021   2.3632   3.7143   8.2520  10.6983  11.9068  13.9798

          k = 0.5833-0.0833 0.7500 (   732 PWs)   bands (ev):

    -2.3742  -0.4759   2.0681   3.9169   8.5139  11.4694  12.4820  13.1863

          k = 0.5000 0.0000 0.6667 (   734 PWs)   bands (ev):

    -2.9229   0.1248   2.1556   4.2688   8.9148  11.0577  11.9311  13.2773

          k = 0.8333-0.1667 1.0000 (   741 PWs)   bands (ev):

    -2.6423  -0.1538   3.2041   3.4028   7.5859   8.0961  13.8997  15.3022

          k = 0.7500-0.0833 0.9167 (   737 PWs)   bands (ev):

    -2.0018  -0.8059   2.5598   3.3586   7.8786   9.0208  13.5735  15.0842

          k = 0.6667 0.0000 0.8333 (   727 PWs)   bands (ev):

    -1.8402  -0.9239   2.0504   3.5594   8.1202  10.5682  13.1088  13.5014

          k =-0.1667-1.0000-0.0000 (   738 PWs)   bands (ev):

    -1.4530  -1.4530   3.1676   3.1676   7.6850   7.6851  15.3918  15.3918

          k = 0.6667-0.3333 1.0000 (   740 PWs)   bands (ev):

    -3.3738   0.7081   2.7485   4.0454   9.2441  10.0935  10.6681  13.5177

          k = 0.5833-0.2500 0.9167 (   736 PWs)   bands (ev):

    -2.7379  -0.0747   2.3970   3.7006   9.6158  10.1683  11.1769  13.9475

          k = 0.5000-0.1667 0.8333 (   734 PWs)   bands (ev):

    -2.3688  -0.5141   2.3041   3.5682   9.7325   9.9740  12.5212  12.9704

          k = 0.6667-0.1667 1.0000 (   737 PWs)   bands (ev):

    -2.4229  -0.2992   2.5449   3.1722   9.0678   9.4669  11.8190  14.7823

          k = 0.5833-0.0833 0.9167 (   732 PWs)   bands (ev):

    -1.8888  -0.8137   2.2212   3.0153   9.4092  10.6787  11.5468  12.9395

          k = 0.5000 0.0000 0.8333 (   730 PWs)   bands (ev):

    -2.1239  -0.5814   2.0940   3.2450   9.7135  10.8788  11.4260  12.6851

          k =-0.3333-1.0000 0.0000 (   738 PWs)   bands (ev):

    -1.3674  -1.3674   2.6686   2.6686   9.1310   9.1310  13.2110  13.2111

          k =-0.5000-1.0000 0.0000 (   724 PWs)   bands (ev):

    -1.3211  -1.3211   2.4552   2.4552  10.6542  10.6543  11.4450  11.4450

     the Fermi energy is     6.4121 ev

!    total energy              =     -22.83871111 Ry
     estimated scf accuracy    <       0.00000009 Ry
     smearing contrib. (-TS)   =       0.00001571 Ry
     internal energy E=F+TS    =     -22.83872682 Ry

     The total energy is F=E-TS. E is the sum of the following terms:
     one-electron contribution =       5.29772027 Ry
     hartree contribution      =       1.08541961 Ry
     xc contribution           =     -12.32959550 Ry
     ewald contribution        =     -16.89227120 Ry

     convergence has been achieved in   4 iterations

     Writing output data file /home/jesus/Documentos/Nanociencia_DFT/test.save/
 
     init_run     :      0.77s CPU      0.84s WALL (       1 calls)
     electrons    :      6.23s CPU      6.47s WALL (       1 calls)

     Called by init_run:
     wfcinit      :      0.42s CPU      0.44s WALL (       1 calls)
     potinit      :      0.02s CPU      0.03s WALL (       1 calls)
     hinit0       :      0.26s CPU      0.27s WALL (       1 calls)

     Called by electrons:
     c_bands      :      5.01s CPU      5.06s WALL (       5 calls)
     sum_band     :      1.02s CPU      1.12s WALL (       5 calls)
     v_of_rho     :      0.09s CPU      0.10s WALL (       5 calls)
     newd         :      0.18s CPU      0.27s WALL (       5 calls)
     mix_rho      :      0.00s CPU      0.01s WALL (       5 calls)

     Called by c_bands:
     init_us_2    :      0.17s CPU      0.17s WALL (     792 calls)
     cegterg      :      4.23s CPU      4.27s WALL (     360 calls)

     Called by *egterg:
     cdiaghg      :      0.13s CPU      0.14s WALL (    1437 calls)
     h_psi        :      4.12s CPU      4.17s WALL (    1581 calls)
     s_psi        :      0.09s CPU      0.09s WALL (    1581 calls)
     g_psi        :      0.01s CPU      0.01s WALL (    1149 calls)

     Called by h_psi:
     h_psi:calbec :      0.11s CPU      0.11s WALL (    1581 calls)
     vloc_psi     :      3.89s CPU      3.94s WALL (    1581 calls)
     add_vuspsi   :      0.09s CPU      0.09s WALL (    1581 calls)

     General routines
     calbec       :      0.13s CPU      0.14s WALL (    1941 calls)
     fft          :      0.03s CPU      0.05s WALL (      64 calls)
     ffts         :      0.00s CPU      0.00s WALL (      10 calls)
     fftw         :      3.91s CPU      3.96s WALL (   19610 calls)
     interpolate  :      0.00s CPU      0.00s WALL (       5 calls)
 
     Parallel routines
 
     PWSCF        :      7.64s CPU      7.96s WALL

 
   This run was terminated on:  19:59:13  15Mar2021            

=------------------------------------------------------------------------------=
   JOB DONE.
=------------------------------------------------------------------------------=
