
     Program PWSCF v.6.6 starts on 15Mar2021 at 19:58:30 

     This program is part of the open-source Quantum ESPRESSO suite
     for quantum simulation of materials; please cite
         "P. Giannozzi et al., J. Phys.:Condens. Matter 21 395502 (2009);
         "P. Giannozzi et al., J. Phys.:Condens. Matter 29 465901 (2017);
          URL http://www.quantum-espresso.org", 
     in publications or presentations arising from this work. More details at
     http://www.quantum-espresso.org/quote

     Parallel version (MPI), running on     1 processors

     MPI processes distributed on     1 nodes
     Fft bands division:     nmany     =       1
     Waiting for input...
     Reading input from standard input
Warning: card &CELL ignored
Warning: card   CELL_DYNAMICS='BFGS', ignored
Warning: card   CELL_DOFREE='ALL', ignored
Warning: card / ignored

     Current dimensions of program PWSCF are:
     Max number of different atomic species (ntypx) = 10
     Max number of k-points (npk) =  40000
     Max angular momentum in pseudopotentials (lmaxx) =  3

     Subspace diagonalization in iterative solution of the eigenvalue problem:
     a serial algorithm will be used

 
     G-vector sticks info
     --------------------
     sticks:   dense  smooth     PW     G-vecs:    dense   smooth      PW
     Sum         859     433    139                16625     5961    1067
 


     bravais-lattice index     =            2
     lattice parameter (alat)  =      10.2045  a.u.
     unit-cell volume          =     265.6549 (a.u.)^3
     number of atoms/cell      =            2
     number of atomic types    =            1
     number of electrons       =         8.00
     number of Kohn-Sham states=            8
     kinetic-energy cutoff     =      30.0000  Ry
     charge density cutoff     =     240.0000  Ry
     convergence threshold     =      1.0E-06
     mixing beta               =       0.7000
     number of iterations used =            8  plain     mixing
     Exchange-correlation= PBE
                           (   1   4   3   4   0   0   0)

     celldm(1)=  10.204521  celldm(2)=   0.000000  celldm(3)=   0.000000
     celldm(4)=   0.000000  celldm(5)=   0.000000  celldm(6)=   0.000000

     crystal axes: (cart. coord. in units of alat)
               a(1) = (  -0.500000   0.000000   0.500000 )  
               a(2) = (   0.000000   0.500000   0.500000 )  
               a(3) = (  -0.500000   0.500000   0.000000 )  

     reciprocal axes: (cart. coord. in units 2 pi/alat)
               b(1) = ( -1.000000 -1.000000  1.000000 )  
               b(2) = (  1.000000  1.000000  1.000000 )  
               b(3) = ( -1.000000  1.000000 -1.000000 )  


     PseudoPot. # 1 for Si read from file:
     /home/jesus/Documentos/Nanociencia_DFT/pseudopotenciales/Si.pbe-n-rrkjus_psl.1.0.0.UPF
     MD5 check sum: fa25574f73a70a4139f2adfbefec430c
     Pseudo is Ultrasoft + core correction, Zval =  4.0
     Generated using "atomic" code by A. Dal Corso v.6.3
     Using radial grid of 1141 points,  6 beta functions with: 
                l(1) =   0
                l(2) =   0
                l(3) =   1
                l(4) =   1
                l(5) =   2
                l(6) =   2
     Q(r) pseudized with 0 coefficients 


     atomic species   valence    mass     pseudopotential
        Si             4.00    28.08550     Si( 1.00)

     48 Sym. Ops., with inversion, found (24 have fractional translation)



   Cartesian axes

     site n.     atom                  positions (alat units)
         1           Si  tau(   1) = (   0.0000000   0.0000000   0.0000000  )
         2           Si  tau(   2) = (  -0.2500000   0.2500000   0.2500000  )

     number of k points=     8  Methfessel-Paxton smearing, width (Ry)=  0.0100
                       cart. coord. in units 2pi/alat
        k(    1) = (   0.0000000   0.0000000   0.0000000), wk =   0.0312500
        k(    2) = (  -0.2500000   0.2500000  -0.2500000), wk =   0.2500000
        k(    3) = (   0.5000000  -0.5000000   0.5000000), wk =   0.1250000
        k(    4) = (   0.0000000   0.5000000   0.0000000), wk =   0.1875000
        k(    5) = (   0.7500000  -0.2500000   0.7500000), wk =   0.7500000
        k(    6) = (   0.5000000   0.0000000   0.5000000), wk =   0.3750000
        k(    7) = (   0.0000000  -1.0000000   0.0000000), wk =   0.0937500
        k(    8) = (  -0.5000000  -1.0000000   0.0000000), wk =   0.1875000

     Dense  grid:    16625 G-vectors     FFT dimensions: (  36,  36,  36)

     Smooth grid:     5961 G-vectors     FFT dimensions: (  32,  32,  32)

     Estimated max dynamical RAM per process >      60.18 MB

     Initial potential from superposition of free atoms

     starting charge    7.99888, renormalised to    8.00000
     Starting wfcs are    8 randomized atomic wfcs

     total cpu time spent up to now is        1.0 secs

     Self-consistent Calculation

     iteration #  1     ecut=    30.00 Ry     beta= 0.70
     Davidson diagonalization with overlap
     ethr =  1.00E-02,  avg # of iterations =  3.6

     Threshold (ethr) on eigenvalues was too large:
     Diagonalizing with lowered threshold

     Davidson diagonalization with overlap
     ethr =  7.40E-04,  avg # of iterations =  1.5

     total cpu time spent up to now is        1.4 secs

     total energy              =     -22.82168124 Ry
     estimated scf accuracy    <       0.06342989 Ry

     iteration #  2     ecut=    30.00 Ry     beta= 0.70
     Davidson diagonalization with overlap
     ethr =  7.93E-04,  avg # of iterations =  1.0

     total cpu time spent up to now is        1.6 secs

     total energy              =     -22.82443828 Ry
     estimated scf accuracy    <       0.00248327 Ry

     iteration #  3     ecut=    30.00 Ry     beta= 0.70
     Davidson diagonalization with overlap
     ethr =  3.10E-05,  avg # of iterations =  3.9

     total cpu time spent up to now is        1.9 secs

     total energy              =     -22.82463502 Ry
     estimated scf accuracy    <       0.00005558 Ry

     iteration #  4     ecut=    30.00 Ry     beta= 0.70
     Davidson diagonalization with overlap
     ethr =  6.95E-07,  avg # of iterations =  3.0

     total cpu time spent up to now is        2.2 secs

     End of self-consistent calculation

          k = 0.0000 0.0000 0.0000 (   725 PWs)   bands (ev):

    -5.6636   6.4256   6.4256   6.4256   8.9768   8.9768   8.9768   9.9842

          k =-0.2500 0.2500-0.2500 (   745 PWs)   bands (ev):

    -4.8513   2.4576   5.6502   5.6502   8.5030   9.9287   9.9287  13.4831

          k = 0.5000-0.5000 0.5000 (   754 PWs)   bands (ev):

    -3.2861  -0.6381   5.2062   5.2062   8.0152   9.7386   9.7386  14.1656

          k = 0.0000 0.5000 0.0000 (   729 PWs)   bands (ev):

    -4.5652   2.9082   4.4940   4.4940   7.5236   9.5385  12.2305  12.2306

          k = 0.7500-0.2500 0.7500 (   735 PWs)   bands (ev):

    -2.8991  -0.0121   2.8226   4.1756   7.9120  10.8765  12.2475  12.3664

          k = 0.5000 0.0000 0.5000 (   742 PWs)   bands (ev):

    -3.5859   0.9067   2.5927   5.0717   8.8698  11.2331  11.5985  12.6517

          k = 0.0000-1.0000 0.0000 (   740 PWs)   bands (ev):

    -1.4544  -1.4544   3.5166   3.5166   7.0854   7.0854  16.6663  16.6663

          k =-0.5000-1.0000 0.0000 (   724 PWs)   bands (ev):

    -1.2816  -1.2816   2.4849   2.4849  10.6867  10.6868  11.4737  11.4737

     the Fermi energy is     6.9708 ev

!    total energy              =     -22.82464378 Ry
     estimated scf accuracy    <       0.00000014 Ry
     smearing contrib. (-TS)   =       0.00005436 Ry
     internal energy E=F+TS    =     -22.82469813 Ry

     The total energy is F=E-TS. E is the sum of the following terms:
     one-electron contribution =       5.29949604 Ry
     hartree contribution      =       1.10970158 Ry
     xc contribution           =     -12.34162456 Ry
     ewald contribution        =     -16.89227120 Ry

     convergence has been achieved in   4 iterations

     Writing output data file /home/jesus/Documentos/Nanociencia_DFT/test.save/
 
     init_run     :      0.33s CPU      0.37s WALL (       1 calls)
     electrons    :      1.03s CPU      1.22s WALL (       1 calls)

     Called by init_run:
     wfcinit      :      0.04s CPU      0.04s WALL (       1 calls)
     potinit      :      0.02s CPU      0.03s WALL (       1 calls)
     hinit0       :      0.21s CPU      0.23s WALL (       1 calls)

     Called by electrons:
     c_bands      :      0.53s CPU      0.55s WALL (       5 calls)
     sum_band     :      0.30s CPU      0.38s WALL (       5 calls)
     v_of_rho     :      0.09s CPU      0.09s WALL (       5 calls)
     newd         :      0.16s CPU      0.25s WALL (       5 calls)
     mix_rho      :      0.01s CPU      0.01s WALL (       5 calls)

     Called by c_bands:
     init_us_2    :      0.02s CPU      0.02s WALL (      88 calls)
     cegterg      :      0.45s CPU      0.46s WALL (      40 calls)

     Called by *egterg:
     cdiaghg      :      0.01s CPU      0.01s WALL (     136 calls)
     h_psi        :      0.43s CPU      0.44s WALL (     152 calls)
     s_psi        :      0.01s CPU      0.01s WALL (     152 calls)
     g_psi        :      0.00s CPU      0.00s WALL (     104 calls)

     Called by h_psi:
     h_psi:calbec :      0.01s CPU      0.01s WALL (     152 calls)
     vloc_psi     :      0.41s CPU      0.42s WALL (     152 calls)
     add_vuspsi   :      0.01s CPU      0.01s WALL (     152 calls)

     General routines
     calbec       :      0.01s CPU      0.02s WALL (     192 calls)
     fft          :      0.03s CPU      0.05s WALL (      64 calls)
     ffts         :      0.00s CPU      0.00s WALL (      10 calls)
     fftw         :      0.42s CPU      0.43s WALL (    2112 calls)
     interpolate  :      0.00s CPU      0.00s WALL (       5 calls)
 
     Parallel routines
 
     PWSCF        :      1.97s CPU      2.20s WALL

 
   This run was terminated on:  19:58:32  15Mar2021            

=------------------------------------------------------------------------------=
   JOB DONE.
=------------------------------------------------------------------------------=
