
     Program BANDS v.6.6 starts on 18Mar2021 at 18:33:20 

     This program is part of the open-source Quantum ESPRESSO suite
     for quantum simulation of materials; please cite
         "P. Giannozzi et al., J. Phys.:Condens. Matter 21 395502 (2009);
         "P. Giannozzi et al., J. Phys.:Condens. Matter 29 465901 (2017);
          URL http://www.quantum-espresso.org", 
     in publications or presentations arising from th is work. More details at
     http://www.quantum-espresso.org/quote

     Parallel version (MPI), running on     1 processors

     MPI processes distributed on     1 nodes
     Fft bands division:     nmany     =       1

     Reading xml data from directory:

     /home/jesus/Documentos/Nanociencia_DFT/test.save/

     IMPORTANT: XC functional enforced from input :
     Exchange-correlation= PBE
                           (   1   4   3   4   0   0   0)
     Any further DFT definition will be discarded
     Please, verify this is what you really want

 
     G-vector sticks info
     --------------------
     sticks:   dense  smooth     PW     G-vecs:    dense   smooth      PW
     Sum         889     439    139                66219    23461    3925
 

     negative rho (up, down):  1.804E-06 0.000E+00
     Reading collected, re-writing distributed wavefunctions
     high-symmetry point:  0.0000 0.0000 0.0000   x coordinate   0.0000
     high-symmetry point:  0.5000 0.2887 0.0000   x coordinate   0.5774
     high-symmetry point:  0.3333 0.5773 0.0000   x coordinate   0.9107
     high-symmetry point:  0.0000 0.0000 0.1617   x coordinate   1.5966

     Plottable bands (eV) written to file silicene_bands.gnu
     Bands written to file silicene_bands

 **************************************************************************

                    xk=(   0.00000,   0.00000,   0.00000  )

     point group C_3v (3m)  
     there are  3 classes
     the character table:

       E     2C3   3s_v 
A_1    1.00  1.00  1.00
A_2    1.00  1.00 -1.00
E      2.00 -1.00  0.00

     the symmetry operations in each class and the name of the first element:

     E        1
                                                                 
     2C3      2    3
                                                                 
     3s_v     4    5    6
                                                                 

     Band symmetry, C_3v (3m)   point group:

     e(  1 -  1) =    -12.69324  eV     1   --> A_1  L_1       
     e(  2 -  2) =     -4.89378  eV     1   --> A_1  L_1       
     e(  3 -  4) =     -2.87751  eV     2   --> E    L_3       
     e(  5 -  5) =      0.12188  eV     1   --> A_1  L_1       
     e(  6 -  6) =      0.71799  eV     1   --> A_1  L_1       
     e(  7 -  8) =      1.29521  eV     2   --> E    L_3       

 **************************************************************************

 **************************************************************************

                    xk=(   0.01667,   0.00962,   0.00000  )

     point group C_s (m)    
     there are  2 classes
     the character table:

       E     s    
A'     1.00  1.00
A''    1.00 -1.00

     the symmetry operations in each class and the name of the first element:

     E        1
                                                                 
     s        2
                                                                 

     Band symmetry, C_s (m)     point group:

     e(  1 -  1) =    -12.69002  eV     1   --> A'             
     e(  2 -  2) =     -4.89148  eV     1   --> A'             
     e(  3 -  3) =     -2.90764  eV     1   --> A'             
     e(  4 -  4) =     -2.88376  eV     1   --> A''            
     e(  5 -  5) =      0.14864  eV     1   --> A'             
     e(  6 -  6) =      0.72018  eV     1   --> A'             
     e(  7 -  7) =      1.29296  eV     1   --> A'             
     e(  8 -  8) =      1.30761  eV     1   --> A''            

 **************************************************************************

 **************************************************************************

                    xk=(   0.03333,   0.01925,   0.00000  )

     Band symmetry, C_s (m)     point group:

     e(  1 -  1) =    -12.68037  eV     1   --> A'             
     e(  2 -  2) =     -4.88468  eV     1   --> A'             
     e(  3 -  3) =     -2.99428  eV     1   --> A'             
     e(  4 -  4) =     -2.90224  eV     1   --> A''            
     e(  5 -  5) =      0.22354  eV     1   --> A'             
     e(  6 -  6) =      0.72673  eV     1   --> A'             
     e(  7 -  7) =      1.28830  eV     1   --> A'             
     e(  8 -  8) =      1.34456  eV     1   --> A''            

 **************************************************************************

 **************************************************************************

                    xk=(   0.05000,   0.02887,   0.00000  )

     Band symmetry, C_s (m)     point group:

     e(  1 -  1) =    -12.66430  eV     1   --> A'             
     e(  2 -  2) =     -4.87373  eV     1   --> A'             
     e(  3 -  3) =     -3.12793  eV     1   --> A'             
     e(  4 -  4) =     -2.93223  eV     1   --> A''            
     e(  5 -  5) =      0.33141  eV     1   --> A'             
     e(  6 -  6) =      0.73743  eV     1   --> A'             
     e(  7 -  7) =      1.28822  eV     1   --> A'             
     e(  8 -  8) =      1.40535  eV     1   --> A''            

 **************************************************************************

 **************************************************************************

                    xk=(   0.06667,   0.03849,   0.00000  )

     Band symmetry, C_s (m)     point group:

     e(  1 -  1) =    -12.64181  eV     1   --> A'             
     e(  2 -  2) =     -4.85937  eV     1   --> A'             
     e(  3 -  3) =     -3.29688  eV     1   --> A'             
     e(  4 -  4) =     -2.97266  eV     1   --> A''            
     e(  5 -  5) =      0.44830  eV     1   --> A'             
     e(  6 -  6) =      0.75205  eV     1   --> A'             
     e(  7 -  7) =      1.30702  eV     1   --> A'             
     e(  8 -  8) =      1.48875  eV     1   --> A''            

 **************************************************************************

 **************************************************************************

                    xk=(   0.08333,   0.04811,   0.00000  )

     Band symmetry, C_s (m)     point group:

     e(  1 -  1) =    -12.61293  eV     1   --> A'             
     e(  2 -  2) =     -4.84300  eV     1   --> A'             
     e(  3 -  3) =     -3.48962  eV     1   --> A'             
     e(  4 -  4) =     -3.02212  eV     1   --> A''            
     e(  5 -  5) =      0.54310  eV     1   --> A'             
     e(  6 -  6) =      0.77056  eV     1   --> A'             
     e(  7 -  7) =      1.36703  eV     1   --> A'             
     e(  8 -  8) =      1.59343  eV     1   --> A''            

 **************************************************************************

 **************************************************************************

                    xk=(   0.10000,   0.05774,   0.00000  )

     Band symmetry, C_s (m)     point group:

     e(  1 -  1) =    -12.57768  eV     1   --> A'             
     e(  2 -  2) =     -4.82739  eV     1   --> A'             
     e(  3 -  3) =     -3.69536  eV     1   --> A'             
     e(  4 -  4) =     -3.07917  eV     1   --> A''            
     e(  5 -  5) =      0.58935  eV     1   --> A'             
     e(  6 -  6) =      0.79309  eV     1   --> A'             
     e(  7 -  7) =      1.48754  eV     1   --> A'             
     e(  8 -  8) =      1.71775  eV     1   --> A''            

 **************************************************************************

 **************************************************************************

                    xk=(   0.11667,   0.06736,   0.00000  )

     Band symmetry, C_s (m)     point group:

     e(  1 -  1) =    -12.53610  eV     1   --> A'             
     e(  2 -  2) =     -4.81837  eV     1   --> A'             
     e(  3 -  3) =     -3.90218  eV     1   --> A'             
     e(  4 -  4) =     -3.14224  eV     1   --> A''            
     e(  5 -  5) =      0.58466  eV     1   --> A'             
     e(  6 -  6) =      0.81839  eV     1   --> A'             
     e(  7 -  7) =      1.66684  eV     1   --> A'             
     e(  8 -  8) =      1.86003  eV     1   --> A''            

 **************************************************************************

 **************************************************************************

                    xk=(   0.13333,   0.07698,   0.00000  )

     Band symmetry, C_s (m)     point group:

     e(  1 -  1) =    -12.48822  eV     1   --> A'             
     e(  2 -  2) =     -4.82881  eV     1   --> A'             
     e(  3 -  3) =     -4.09279  eV     1   --> A'             
     e(  4 -  4) =     -3.20983  eV     1   --> A''            
     e(  5 -  5) =      0.54411  eV     1   --> A'             
     e(  6 -  6) =      0.84434  eV     1   --> A'             
     e(  7 -  7) =      1.88722  eV     1   --> A'             
     e(  8 -  8) =      2.01866  eV     1   --> A''            

 **************************************************************************

 **************************************************************************

                    xk=(   0.15000,   0.08660,   0.00000  )

     Band symmetry, C_s (m)     point group:

     e(  1 -  1) =    -12.43408  eV     1   --> A'             
     e(  2 -  2) =     -4.88374  eV     1   --> A'             
     e(  3 -  3) =     -4.23898  eV     1   --> A'             
     e(  4 -  4) =     -3.28063  eV     1   --> A''            
     e(  5 -  5) =      0.48191  eV     1   --> A'             
     e(  6 -  6) =      0.86922  eV     1   --> A'             
     e(  7 -  7) =      2.13044  eV     1   --> A'             
     e(  8 -  8) =      2.19201  eV     1   --> A''            

 **************************************************************************

 **************************************************************************

                    xk=(   0.16667,   0.09623,   0.00000  )

     Band symmetry, C_s (m)     point group:

     e(  1 -  1) =    -12.37375  eV     1   --> A'             
     e(  2 -  2) =     -5.00787  eV     1   --> A'             
     e(  3 -  3) =     -4.31363  eV     1   --> A'             
     e(  4 -  4) =     -3.35339  eV     1   --> A''            
     e(  5 -  5) =      0.40709  eV     1   --> A'             
     e(  6 -  6) =      0.89100  eV     1   --> A'             
     e(  7 -  8) =      2.37850  eV     2   --> A'             
     e(  7 -  8) =      2.37850  eV     2   --> A''            

 **************************************************************************

 **************************************************************************

                    xk=(   0.18333,   0.10585,   0.00000  )

     Band symmetry, C_s (m)     point group:

     e(  1 -  1) =    -12.30730  eV     1   --> A'             
     e(  2 -  2) =     -5.19283  eV     1   --> A'             
     e(  3 -  3) =     -4.32335  eV     1   --> A'             
     e(  4 -  4) =     -3.42700  eV     1   --> A''            
     e(  5 -  5) =      0.32507  eV     1   --> A'             
     e(  6 -  6) =      0.90682  eV     1   --> A'             
     e(  7 -  7) =      2.57671  eV     1   --> A''            
     e(  8 -  8) =      2.59326  eV     1   --> A'             

 **************************************************************************

 **************************************************************************

                    xk=(   0.20000,   0.11547,   0.00000  )

     Band symmetry, C_s (m)     point group:

     e(  1 -  1) =    -12.23480  eV     1   --> A'             
     e(  2 -  2) =     -5.41163  eV     1   --> A'             
     e(  3 -  3) =     -4.29382  eV     1   --> A'             
     e(  4 -  4) =     -3.50049  eV     1   --> A''            
     e(  5 -  5) =      0.23932  eV     1   --> A'             
     e(  6 -  6) =      0.91288  eV     1   --> A'             
     e(  7 -  7) =      2.68252  eV     1   --> A'             
     e(  8 -  8) =      2.78503  eV     1   --> A''            

 **************************************************************************

 **************************************************************************

                    xk=(   0.21667,   0.12509,   0.00000  )

     Band symmetry, C_s (m)     point group:

     e(  1 -  1) =    -12.15637  eV     1   --> A'             
     e(  2 -  2) =     -5.64611  eV     1   --> A'             
     e(  3 -  3) =     -4.24216  eV     1   --> A'             
     e(  4 -  4) =     -3.57307  eV     1   --> A''            
     e(  5 -  5) =      0.15210  eV     1   --> A'             
     e(  6 -  6) =      0.90456  eV     1   --> A'             
     e(  7 -  7) =      2.65939  eV     1   --> A'             
     e(  8 -  8) =      3.00181  eV     1   --> A''            

 **************************************************************************

 **************************************************************************

                    xk=(   0.23333,   0.13472,   0.00000  )

     Band symmetry, C_s (m)     point group:

     e(  1 -  1) =    -12.07211  eV     1   --> A'             
     e(  2 -  2) =     -5.88727  eV     1   --> A'             
     e(  3 -  3) =     -4.17655  eV     1   --> A'             
     e(  4 -  4) =     -3.64403  eV     1   --> A''            
     e(  5 -  5) =      0.06504  eV     1   --> A'             
     e(  6 -  6) =      0.87699  eV     1   --> A'             
     e(  7 -  7) =      2.61123  eV     1   --> A'             
     e(  8 -  8) =      3.22520  eV     1   --> A''            

 **************************************************************************

 **************************************************************************

                    xk=(   0.25000,   0.14434,   0.00000  )

     Band symmetry, C_s (m)     point group:

     e(  1 -  1) =    -11.98218  eV     1   --> A'             
     e(  2 -  2) =     -6.13058  eV     1   --> A'             
     e(  3 -  3) =     -4.10092  eV     1   --> A'             
     e(  4 -  4) =     -3.71278  eV     1   --> A''            
     e(  5 -  5) =     -0.02074  eV     1   --> A'             
     e(  6 -  6) =      0.82607  eV     1   --> A'             
     e(  7 -  7) =      2.57150  eV     1   --> A'             
     e(  8 -  8) =      3.45285  eV     1   --> A''            

 **************************************************************************

 **************************************************************************

                    xk=(   0.26667,   0.15396,   0.00000  )

     Band symmetry, C_s (m)     point group:

     e(  1 -  1) =    -11.88676  eV     1   --> A'             
     e(  2 -  2) =     -6.37340  eV     1   --> A'             
     e(  3 -  3) =     -4.01736  eV     1   --> A'             
     e(  4 -  4) =     -3.77879  eV     1   --> A''            
     e(  5 -  5) =     -0.10439  eV     1   --> A'             
     e(  6 -  6) =      0.74993  eV     1   --> A'             
     e(  7 -  7) =      2.55277  eV     1   --> A'             
     e(  8 -  8) =      3.68162  eV     1   --> A''            

 **************************************************************************

 **************************************************************************

                    xk=(   0.28333,   0.16358,   0.00000  )

     Band symmetry, C_s (m)     point group:

     e(  1 -  1) =    -11.78608  eV     1   --> A'             
     e(  2 -  2) =     -6.61407  eV     1   --> A'             
     e(  3 -  3) =     -3.92716  eV     1   --> A'             
     e(  4 -  4) =     -3.84163  eV     1   --> A''            
     e(  5 -  5) =     -0.18539  eV     1   --> A'             
     e(  6 -  6) =      0.64970  eV     1   --> A'             
     e(  7 -  7) =      2.55947  eV     1   --> A'             
     e(  8 -  8) =      3.90709  eV     1   --> A''            

 **************************************************************************

 **************************************************************************

                    xk=(   0.30000,   0.17321,   0.00000  )

     Band symmetry, C_s (m)     point group:

     e(  1 -  1) =    -11.68043  eV     1   --> A'             
     e(  2 -  2) =     -6.85132  eV     1   --> A'             
     e(  3 -  3) =     -3.90095  eV     1   --> A''            
     e(  4 -  4) =     -3.83125  eV     1   --> A'             
     e(  5 -  5) =     -0.26347  eV     1   --> A'             
     e(  6 -  6) =      0.52916  eV     1   --> A'             
     e(  7 -  7) =      2.59147  eV     1   --> A'             
     e(  8 -  8) =      4.12288  eV     1   -->   ?

 **************************************************************************

 **************************************************************************

                    xk=(   0.31667,   0.18283,   0.00000  )

     Band symmetry, C_s (m)     point group:

     e(  1 -  1) =    -11.57018  eV     1   --> A'             
     e(  2 -  2) =     -7.08411  eV     1   --> A'             
     e(  3 -  3) =     -3.95643  eV     1   --> A''            
     e(  4 -  4) =     -3.73043  eV     1   --> A'             
     e(  5 -  5) =     -0.33863  eV     1   --> A'             
     e(  6 -  6) =      0.39371  eV     1   --> A'             
     e(  7 -  7) =      2.64617  eV     1   --> A'             
     e(  8 -  8) =      4.25382  eV     1   -->   ?

 **************************************************************************

 **************************************************************************

                    xk=(   0.33333,   0.19245,   0.00000  )

     Band symmetry, C_s (m)     point group:

     e(  1 -  1) =    -11.45583  eV     1   --> A'             
     e(  2 -  2) =     -7.31145  eV     1   --> A'             
     e(  3 -  3) =     -4.00779  eV     1   --> A''            
     e(  4 -  4) =     -3.62549  eV     1   --> A'             
     e(  5 -  5) =     -0.41126  eV     1   --> A'             
     e(  6 -  6) =      0.24924  eV     1   --> A'             
     e(  7 -  7) =      2.72018  eV     1   --> A'             
     e(  8 -  8) =      4.37414  eV     1   --> A'             

 **************************************************************************

 **************************************************************************

                    xk=(   0.35000,   0.20207,   0.00000  )

     Band symmetry, C_s (m)     point group:

     e(  1 -  1) =    -11.33802  eV     1   --> A'             
     e(  2 -  2) =     -7.53231  eV     1   --> A'             
     e(  3 -  3) =     -4.05484  eV     1   --> A''            
     e(  4 -  4) =     -3.51731  eV     1   --> A'             
     e(  5 -  5) =     -0.48234  eV     1   --> A'             
     e(  6 -  6) =      0.10176  eV     1   --> A'             
     e(  7 -  7) =      2.81012  eV     1   --> A'             
     e(  8 -  8) =      4.49475  eV     1   --> A'             

 **************************************************************************

 **************************************************************************

                    xk=(   0.36667,   0.21170,   0.00000  )

     Band symmetry, C_s (m)     point group:

     e(  1 -  1) =    -11.21763  eV     1   --> A'             
     e(  2 -  2) =     -7.74550  eV     1   --> A'             
     e(  3 -  3) =     -4.09735  eV     1   --> A''            
     e(  4 -  4) =     -3.40696  eV     1   --> A'             
     e(  5 -  5) =     -0.55360  eV     1   --> A'             
     e(  6 -  6) =     -0.04248  eV     1   --> A'             
     e(  7 -  7) =      2.91296  eV     1   --> A'             
     e(  8 -  8) =      4.61203  eV     1   --> A'             

 **************************************************************************

 **************************************************************************

                    xk=(   0.38333,   0.22132,   0.00000  )

     Band symmetry, C_s (m)     point group:

     e(  1 -  1) =    -11.09591  eV     1   --> A'             
     e(  2 -  2) =     -7.94958  eV     1   --> A'             
     e(  3 -  3) =     -4.13520  eV     1   --> A''            
     e(  4 -  4) =     -3.29582  eV     1   --> A'             
     e(  5 -  5) =     -0.62791  eV     1   --> A'             
     e(  6 -  6) =     -0.17666  eV     1   --> A'             
     e(  7 -  7) =      3.02594  eV     1   --> A'             
     e(  8 -  8) =      4.71928  eV     1   -->   ?

 **************************************************************************

 **************************************************************************

                    xk=(   0.40000,   0.23094,   0.00000  )

     Band symmetry, C_s (m)     point group:

     e(  1 -  1) =    -10.97460  eV     1   --> A'             
     e(  2 -  2) =     -8.14259  eV     1   --> A'             
     e(  3 -  3) =     -4.16824  eV     1   --> A''            
     e(  4 -  4) =     -3.18573  eV     1   --> A'             
     e(  5 -  5) =     -0.70859  eV     1   --> A'             
     e(  6 -  6) =     -0.29355  eV     1   --> A'             
     e(  7 -  7) =      3.14642  eV     1   --> A'             
     e(  8 -  8) =      4.79504  eV     1   -->   ?

 **************************************************************************

 **************************************************************************

                    xk=(   0.41667,   0.24056,   0.00000  )

     Band symmetry, C_s (m)     point group:

     e(  1 -  1) =    -10.85622  eV     1   --> A'             
     e(  2 -  2) =     -8.32187  eV     1   --> A'             
     e(  3 -  3) =     -4.19636  eV     1   --> A''            
     e(  4 -  4) =     -3.07922  eV     1   --> A'             
     e(  5 -  5) =     -0.79717  eV     1   --> A'             
     e(  6 -  6) =     -0.38757  eV     1   --> A'             
     e(  7 -  7) =      3.27149  eV     1   --> A'             
     e(  8 -  8) =      4.81038  eV     1   -->   ?

 **************************************************************************

 **************************************************************************

                    xk=(   0.43333,   0.25019,   0.00000  )

     Band symmetry, C_s (m)     point group:

     e(  1 -  1) =    -10.74443  eV     1   --> A'             
     e(  2 -  2) =     -8.48364  eV     1   --> A'             
     e(  3 -  3) =     -4.21948  eV     1   --> A''            
     e(  4 -  4) =     -2.97975  eV     1   --> A'             
     e(  5 -  5) =     -0.89019  eV     1   --> A'             
     e(  6 -  6) =     -0.45760  eV     1   --> A'             
     e(  7 -  7) =      3.39740  eV     1   --> A'             
     e(  8 -  8) =      4.81662  eV     1   -->   ?

 **************************************************************************

 **************************************************************************

                    xk=(   0.45000,   0.25981,   0.00000  )

     Band symmetry, C_s (m)     point group:

     e(  1 -  1) =    -10.64444  eV     1   --> A'             
     e(  2 -  2) =     -8.62258  eV     1   --> A'             
     e(  3 -  3) =     -4.23754  eV     1   --> A''            
     e(  4 -  4) =     -2.89202  eV     1   --> A'             
     e(  5 -  5) =     -0.97910  eV     1   --> A'             
     e(  6 -  6) =     -0.50661  eV     1   --> A'             
     e(  7 -  7) =      3.51855  eV     1   --> A'             
     e(  8 -  8) =      4.76806  eV     1   --> A'             

 **************************************************************************

 **************************************************************************

                    xk=(   0.46667,   0.26943,   0.00000  )

     Band symmetry, C_s (m)     point group:

     e(  1 -  1) =    -10.56334  eV     1   --> A'             
     e(  2 -  2) =     -8.73156  eV     1   --> A'             
     e(  3 -  3) =     -4.25048  eV     1   --> A''            
     e(  4 -  4) =     -2.82195  eV     1   --> A'             
     e(  5 -  5) =     -1.05335  eV     1   --> A'             
     e(  6 -  6) =     -0.53871  eV     1   --> A'             
     e(  7 -  7) =      3.62570  eV     1   --> A'             
     e(  8 -  8) =      4.68994  eV     1   --> A'             

 **************************************************************************

 **************************************************************************

                    xk=(   0.48333,   0.27905,   0.00000  )

     Band symmetry, C_s (m)     point group:

     e(  1 -  1) =    -10.50953  eV     1   --> A'             
     e(  2 -  2) =     -8.80211  eV     1   --> A'             
     e(  3 -  3) =     -4.25825  eV     1   --> A''            
     e(  4 -  4) =     -2.77614  eV     1   --> A'             
     e(  5 -  5) =     -1.10293  eV     1   --> A'             
     e(  6 -  6) =     -0.55685  eV     1   --> A'             
     e(  7 -  7) =      3.70376  eV     1   --> A'             
     e(  8 -  8) =      4.62463  eV     1   --> A'             

 **************************************************************************

 **************************************************************************

                    xk=(   0.50000,   0.28868,   0.00000  )

     Band symmetry, C_s (m)     point group:

     e(  1 -  1) =    -10.49055  eV     1   --> A'             
     e(  2 -  2) =     -8.82668  eV     1   --> A'             
     e(  3 -  3) =     -4.26086  eV     1   --> A''            
     e(  4 -  4) =     -2.76012  eV     1   --> A'             
     e(  5 -  5) =     -1.12040  eV     1   --> A'             
     e(  6 -  6) =     -0.56274  eV     1   --> A'             
     e(  7 -  7) =      3.73324  eV     1   --> A'             
     e(  8 -  8) =      4.59870  eV     1   --> A'             

 **************************************************************************

 **************************************************************************

                    xk=(   0.49444,   0.29830,   0.00000  )

     point group C_1 (1)    
     there are  1 classes
     the character table:

       E    
A      1.00

     the symmetry operations in each class and the name of the first element:

     E        1
                                                                 

     Band symmetry, C_1 (1)     point group:

     e(  1 -  1) =    -10.48941  eV     1   --> A              
     e(  2 -  2) =     -8.82673  eV     1   --> A              
     e(  3 -  3) =     -4.26889  eV     1   --> A              
     e(  4 -  4) =     -2.75823  eV     1   --> A              
     e(  5 -  5) =     -1.12053  eV     1   --> A              
     e(  6 -  6) =     -0.55252  eV     1   --> A              
     e(  7 -  7) =      3.73128  eV     1   --> A              
     e(  8 -  8) =      4.59954  eV     1   --> A              

 **************************************************************************

 **************************************************************************

                    xk=(   0.48889,   0.30792,   0.00000  )

     Band symmetry, C_1 (1)     point group:

     e(  1 -  1) =    -10.48598  eV     1   --> A              
     e(  2 -  2) =     -8.82691  eV     1   --> A              
     e(  3 -  3) =     -4.29267  eV     1   --> A              
     e(  4 -  4) =     -2.75265  eV     1   --> A              
     e(  5 -  5) =     -1.12093  eV     1   --> A              
     e(  6 -  6) =     -0.52213  eV     1   --> A              
     e(  7 -  7) =      3.72519  eV     1   --> A              
     e(  8 -  8) =      4.60205  eV     1   --> A              

 **************************************************************************

 **************************************************************************

                    xk=(   0.48333,   0.31754,   0.00000  )

     Band symmetry, C_1 (1)     point group:

     e(  1 -  1) =    -10.48027  eV     1   --> A              
     e(  2 -  2) =     -8.82724  eV     1   --> A              
     e(  3 -  3) =     -4.33122  eV     1   --> A              
     e(  4 -  4) =     -2.74365  eV     1   --> A              
     e(  5 -  5) =     -1.12163  eV     1   --> A              
     e(  6 -  6) =     -0.47230  eV     1   --> A              
     e(  7 -  7) =      3.71428  eV     1   --> A              
     e(  8 -  8) =      4.60623  eV     1   --> A              

 **************************************************************************

 **************************************************************************

                    xk=(   0.47777,   0.32716,   0.00000  )

     Band symmetry, C_1 (1)     point group:

     e(  1 -  1) =    -10.47227  eV     1   --> A              
     e(  2 -  2) =     -8.82777  eV     1   --> A              
     e(  3 -  3) =     -4.38304  eV     1   --> A              
     e(  4 -  4) =     -2.73161  eV     1   --> A              
     e(  5 -  5) =     -1.12267  eV     1   --> A              
     e(  6 -  6) =     -0.40407  eV     1   --> A              
     e(  7 -  7) =      3.69744  eV     1   --> A              
     e(  8 -  8) =      4.61204  eV     1   --> A              

 **************************************************************************

 **************************************************************************

                    xk=(   0.47222,   0.33678,   0.00000  )

     Band symmetry, C_1 (1)     point group:

     e(  1 -  1) =    -10.46199  eV     1   --> A              
     e(  2 -  2) =     -8.82857  eV     1   --> A              
     e(  3 -  3) =     -4.44636  eV     1   --> A              
     e(  4 -  4) =     -2.71691  eV     1   --> A              
     e(  5 -  5) =     -1.12412  eV     1   --> A              
     e(  6 -  6) =     -0.31880  eV     1   --> A              
     e(  7 -  7) =      3.67318  eV     1   --> A              
     e(  8 -  8) =      4.55327  eV     1   --> A              

 **************************************************************************

 **************************************************************************

                    xk=(   0.46666,   0.34640,   0.00000  )

     Band symmetry, C_1 (1)     point group:

     e(  1 -  1) =    -10.44942  eV     1   --> A              
     e(  2 -  2) =     -8.82972  eV     1   --> A              
     e(  3 -  3) =     -4.51930  eV     1   --> A              
     e(  4 -  4) =     -2.69988  eV     1   --> A              
     e(  5 -  5) =     -1.12605  eV     1   --> A              
     e(  6 -  6) =     -0.21790  eV     1   --> A              
     e(  7 -  7) =      3.63983  eV     1   --> A              
     e(  8 -  8) =      4.48689  eV     1   --> A              

 **************************************************************************

 **************************************************************************

                    xk=(   0.46110,   0.35602,   0.00000  )

     Band symmetry, C_1 (1)     point group:

     e(  1 -  1) =    -10.43458  eV     1   --> A              
     e(  2 -  2) =     -8.83132  eV     1   --> A              
     e(  3 -  3) =     -4.59997  eV     1   --> A              
     e(  4 -  4) =     -2.68081  eV     1   --> A              
     e(  5 -  5) =     -1.12856  eV     1   --> A              
     e(  6 -  6) =     -0.10289  eV     1   --> A              
     e(  7 -  7) =      3.59600  eV     1   --> A              
     e(  8 -  8) =      4.42949  eV     1   --> A              

 **************************************************************************

 **************************************************************************

                    xk=(   0.45555,   0.36564,   0.00000  )

     Band symmetry, C_1 (1)     point group:

     e(  1 -  1) =    -10.41745  eV     1   --> A              
     e(  2 -  2) =     -8.83352  eV     1   --> A              
     e(  3 -  3) =     -4.68664  eV     1   --> A              
     e(  4 -  4) =     -2.65985  eV     1   --> A              
     e(  5 -  5) =     -1.13178  eV     1   --> A              
     e(  6 -  6) =      0.02470  eV     1   --> A              
     e(  7 -  7) =      3.54106  eV     1   --> A              
     e(  8 -  8) =      4.38360  eV     1   --> A              

 **************************************************************************

 **************************************************************************

                    xk=(   0.44999,   0.37526,   0.00000  )

     Band symmetry, C_1 (1)     point group:

     e(  1 -  1) =    -10.39804  eV     1   --> A              
     e(  2 -  2) =     -8.83647  eV     1   --> A              
     e(  3 -  3) =     -4.77770  eV     1   --> A              
     e(  4 -  4) =     -2.63713  eV     1   --> A              
     e(  5 -  5) =     -1.13583  eV     1   --> A              
     e(  6 -  6) =      0.16354  eV     1   --> A              
     e(  7 -  7) =      3.47551  eV     1   --> A              
     e(  8 -  8) =      4.35010  eV     1   --> A              

 **************************************************************************

 **************************************************************************

                    xk=(   0.44443,   0.38488,   0.00000  )

     Band symmetry, C_1 (1)     point group:

     e(  1 -  1) =    -10.37636  eV     1   --> A              
     e(  2 -  2) =     -8.84032  eV     1   --> A              
     e(  3 -  3) =     -4.87170  eV     1   --> A              
     e(  4 -  4) =     -2.61270  eV     1   --> A              
     e(  5 -  5) =     -1.14088  eV     1   --> A              
     e(  6 -  6) =      0.31238  eV     1   --> A              
     e(  7 -  7) =      3.40091  eV     1   --> A              
     e(  8 -  8) =      4.32849  eV     1   --> A              

 **************************************************************************

 **************************************************************************

                    xk=(   0.43888,   0.39450,   0.00000  )

     Band symmetry, C_1 (1)     point group:

     e(  1 -  1) =    -10.35239  eV     1   --> A              
     e(  2 -  2) =     -8.84529  eV     1   --> A              
     e(  3 -  3) =     -4.96735  eV     1   --> A              
     e(  4 -  4) =     -2.58656  eV     1   --> A              
     e(  5 -  5) =     -1.14708  eV     1   --> A              
     e(  6 -  6) =      0.47016  eV     1   --> A              
     e(  7 -  7) =      3.31947  eV     1   --> A              
     e(  8 -  8) =      4.31740  eV     1   --> A              

 **************************************************************************

 **************************************************************************

                    xk=(   0.43332,   0.40412,   0.00000  )

     Band symmetry, C_1 (1)     point group:

     e(  1 -  1) =    -10.32616  eV     1   --> A              
     e(  2 -  2) =     -8.85158  eV     1   --> A              
     e(  3 -  3) =     -5.06351  eV     1   --> A              
     e(  4 -  4) =     -2.55872  eV     1   --> A              
     e(  5 -  5) =     -1.15463  eV     1   --> A              
     e(  6 -  6) =      0.63583  eV     1   --> A              
     e(  7 -  7) =      3.23350  eV     1   --> A              
     e(  8 -  8) =      4.31521  eV     1   --> A              

 **************************************************************************

 **************************************************************************

                    xk=(   0.42776,   0.41374,   0.00000  )

     Band symmetry, C_1 (1)     point group:

     e(  1 -  1) =    -10.29765  eV     1   --> A              
     e(  2 -  2) =     -8.85944  eV     1   --> A              
     e(  3 -  3) =     -5.15914  eV     1   --> A              
     e(  4 -  4) =     -2.52915  eV     1   --> A              
     e(  5 -  5) =     -1.16373  eV     1   --> A              
     e(  6 -  6) =      0.80859  eV     1   --> A              
     e(  7 -  7) =      3.14513  eV     1   --> A              
     e(  8 -  8) =      4.32033  eV     1   --> A              

 **************************************************************************

 **************************************************************************

                    xk=(   0.42221,   0.42336,   0.00000  )

     Band symmetry, C_1 (1)     point group:

     e(  1 -  1) =    -10.26688  eV     1   --> A              
     e(  2 -  2) =     -8.86913  eV     1   --> A              
     e(  3 -  3) =     -5.25332  eV     1   --> A              
     e(  4 -  4) =     -2.49783  eV     1   --> A              
     e(  5 -  5) =     -1.17460  eV     1   --> A              
     e(  6 -  6) =      0.98762  eV     1   --> A              
     e(  7 -  7) =      3.05619  eV     1   --> A              
     e(  8 -  8) =      4.33142  eV     1   --> A              

 **************************************************************************

 **************************************************************************

                    xk=(   0.41665,   0.43298,   0.00000  )

     Band symmetry, C_1 (1)     point group:

     e(  1 -  1) =    -10.23384  eV     1   --> A              
     e(  2 -  2) =     -8.88093  eV     1   --> A              
     e(  3 -  3) =     -5.34522  eV     1   --> A              
     e(  4 -  4) =     -2.46473  eV     1   --> A              
     e(  5 -  5) =     -1.18746  eV     1   --> A              
     e(  6 -  6) =      1.17229  eV     1   --> A              
     e(  7 -  7) =      2.96818  eV     1   --> A              
     e(  8 -  8) =      4.34740  eV     1   --> A              

 **************************************************************************

 **************************************************************************

                    xk=(   0.41109,   0.44260,   0.00000  )

     Band symmetry, C_1 (1)     point group:

     e(  1 -  1) =    -10.19853  eV     1   --> A              
     e(  2 -  2) =     -8.89511  eV     1   --> A              
     e(  3 -  3) =     -5.43404  eV     1   --> A              
     e(  4 -  4) =     -2.42981  eV     1   --> A              
     e(  5 -  5) =     -1.20255  eV     1   --> A              
     e(  6 -  6) =      1.36200  eV     1   --> A              
     e(  7 -  7) =      2.88233  eV     1   --> A              
     e(  8 -  8) =      4.36735  eV     1   --> A              

 **************************************************************************

 **************************************************************************

                    xk=(   0.40554,   0.45222,   0.00000  )

     Band symmetry, C_1 (1)     point group:

     e(  1 -  1) =    -10.16097  eV     1   --> A              
     e(  2 -  2) =     -8.91198  eV     1   --> A              
     e(  3 -  3) =     -5.51911  eV     1   --> A              
     e(  4 -  4) =     -2.39305  eV     1   --> A              
     e(  5 -  5) =     -1.22009  eV     1   --> A              
     e(  6 -  6) =      1.55626  eV     1   --> A              
     e(  7 -  7) =      2.79965  eV     1   --> A              
     e(  8 -  8) =      4.39050  eV     1   --> A              

 **************************************************************************

 **************************************************************************

                    xk=(   0.39998,   0.46185,   0.00000  )

     Band symmetry, C_1 (1)     point group:

     e(  1 -  1) =    -10.12115  eV     1   --> A              
     e(  2 -  2) =     -8.93183  eV     1   --> A              
     e(  3 -  3) =     -5.59977  eV     1   --> A              
     e(  4 -  4) =     -2.35444  eV     1   --> A              
     e(  5 -  5) =     -1.24032  eV     1   --> A              
     e(  6 -  6) =      1.75456  eV     1   --> A              
     e(  7 -  7) =      2.72095  eV     1   --> A              
     e(  8 -  8) =      4.41615  eV     1   --> A              

 **************************************************************************

 **************************************************************************

                    xk=(   0.39442,   0.47147,   0.00000  )

     Band symmetry, C_1 (1)     point group:

     e(  1 -  1) =    -10.07907  eV     1   --> A              
     e(  2 -  2) =     -8.95496  eV     1   --> A              
     e(  3 -  3) =     -5.67545  eV     1   --> A              
     e(  4 -  4) =     -2.31396  eV     1   --> A              
     e(  5 -  5) =     -1.26346  eV     1   --> A              
     e(  6 -  6) =      1.95648  eV     1   --> A              
     e(  7 -  7) =      2.64692  eV     1   --> A              
     e(  8 -  8) =      4.44359  eV     1   --> A              

 **************************************************************************

 **************************************************************************

                    xk=(   0.38887,   0.48109,   0.00000  )

     Band symmetry, C_1 (1)     point group:

     e(  1 -  1) =    -10.03474  eV     1   --> A              
     e(  2 -  2) =     -8.98161  eV     1   --> A              
     e(  3 -  3) =     -5.74563  eV     1   --> A              
     e(  4 -  4) =     -2.27160  eV     1   --> A              
     e(  5 -  5) =     -1.28971  eV     1   --> A              
     e(  6 -  6) =      2.16155  eV     1   --> A              
     e(  7 -  7) =      2.57811  eV     1   --> A              
     e(  8 -  8) =      4.47205  eV     1   --> A              

 **************************************************************************

 **************************************************************************

                    xk=(   0.38331,   0.49071,   0.00000  )

     Band symmetry, C_1 (1)     point group:

     e(  1 -  1) =     -9.98817  eV     1   --> A              
     e(  2 -  2) =     -9.01204  eV     1   --> A              
     e(  3 -  3) =     -5.80986  eV     1   --> A              
     e(  4 -  4) =     -2.22734  eV     1   --> A              
     e(  5 -  5) =     -1.31926  eV     1   --> A              
     e(  6 -  6) =      2.36930  eV     1   --> A              
     e(  7 -  7) =      2.51504  eV     1   --> A              
     e(  8 -  8) =      4.50055  eV     1   --> A              

 **************************************************************************

 **************************************************************************

                    xk=(   0.37775,   0.50033,   0.00000  )

     Band symmetry, C_1 (1)     point group:

     e(  1 -  1) =     -9.93936  eV     1   --> A              
     e(  2 -  2) =     -9.04643  eV     1   --> A              
     e(  3 -  3) =     -5.86777  eV     1   --> A              
     e(  4 -  4) =     -2.18118  eV     1   --> A              
     e(  5 -  5) =     -1.35224  eV     1   --> A              
     e(  6 -  6) =      2.45808  eV     1   --> A              
     e(  7 -  7) =      2.57920  eV     1   --> A              
     e(  8 -  8) =      4.52786  eV     1   --> A              

 **************************************************************************

 **************************************************************************

                    xk=(   0.37220,   0.50995,   0.00000  )

     Band symmetry, C_1 (1)     point group:

     e(  1 -  1) =     -9.88831  eV     1   --> A              
     e(  2 -  2) =     -9.08493  eV     1   --> A              
     e(  3 -  3) =     -5.91904  eV     1   --> A              
     e(  4 -  4) =     -2.13312  eV     1   --> A              
     e(  5 -  5) =     -1.38876  eV     1   --> A              
     e(  6 -  6) =      2.40752  eV     1   --> A              
     e(  7 -  7) =      2.79063  eV     1   --> A              
     e(  8 -  8) =      4.55225  eV     1   --> A              

 **************************************************************************

 **************************************************************************

                    xk=(   0.36664,   0.51957,   0.00000  )

     Band symmetry, C_1 (1)     point group:

     e(  1 -  1) =     -9.83503  eV     1   --> A              
     e(  2 -  2) =     -9.12762  eV     1   --> A              
     e(  3 -  3) =     -5.96347  eV     1   --> A              
     e(  4 -  4) =     -2.08315  eV     1   --> A              
     e(  5 -  5) =     -1.42890  eV     1   --> A              
     e(  6 -  6) =      2.36361  eV     1   --> A              
     e(  7 -  7) =      3.00278  eV     1   --> A              
     e(  8 -  8) =      4.57132  eV     1   --> A              

 **************************************************************************

 **************************************************************************

                    xk=(   0.36108,   0.52919,   0.00000  )

     Band symmetry, C_1 (1)     point group:

     e(  1 -  1) =     -9.77953  eV     1   --> A              
     e(  2 -  2) =     -9.17453  eV     1   --> A              
     e(  3 -  3) =     -6.00091  eV     1   --> A              
     e(  4 -  4) =     -2.03130  eV     1   --> A              
     e(  5 -  5) =     -1.47268  eV     1   --> A              
     e(  6 -  6) =      2.32649  eV     1   --> A              
     e(  7 -  7) =      3.21443  eV     1   --> A              
     e(  8 -  8) =      4.58183  eV     1   --> A              

 **************************************************************************

 **************************************************************************

                    xk=(   0.35553,   0.53881,   0.00000  )

     Band symmetry, C_1 (1)     point group:

     e(  1 -  1) =     -9.72180  eV     1   --> A              
     e(  2 -  2) =     -9.22560  eV     1   --> A              
     e(  3 -  3) =     -6.03132  eV     1   --> A              
     e(  4 -  4) =     -1.97755  eV     1   --> A              
     e(  5 -  5) =     -1.52006  eV     1   --> A              
     e(  6 -  6) =      2.29623  eV     1   --> A              
     e(  7 -  7) =      3.42363  eV     1   --> A              
     e(  8 -  8) =      4.54607  eV     1   --> A              

 **************************************************************************

 **************************************************************************

                    xk=(   0.34997,   0.54843,   0.00000  )

     Band symmetry, C_1 (1)     point group:

     e(  1 -  1) =     -9.66186  eV     1   --> A              
     e(  2 -  2) =     -9.28072  eV     1   --> A              
     e(  3 -  3) =     -6.05472  eV     1   --> A              
     e(  4 -  4) =     -1.92192  eV     1   --> A              
     e(  5 -  5) =     -1.57098  eV     1   --> A              
     e(  6 -  6) =      2.27284  eV     1   --> A              
     e(  7 -  7) =      3.62654  eV     1   --> A              
     e(  8 -  8) =      4.47656  eV     1   --> A              

 **************************************************************************

 **************************************************************************

                    xk=(   0.34441,   0.55805,   0.00000  )

     Band symmetry, C_1 (1)     point group:

     e(  1 -  1) =     -9.59972  eV     1   --> A              
     e(  2 -  2) =     -9.33972  eV     1   --> A              
     e(  3 -  3) =     -6.07121  eV     1   --> A              
     e(  4 -  4) =     -1.86442  eV     1   --> A              
     e(  5 -  5) =     -1.62530  eV     1   --> A              
     e(  6 -  6) =      2.25630  eV     1   --> A              
     e(  7 -  7) =      3.81442  eV     1   --> A              
     e(  8 -  8) =      4.41085  eV     1   --> A              

 **************************************************************************

 **************************************************************************

                    xk=(   0.33886,   0.56767,   0.00000  )

     Band symmetry, C_1 (1)     point group:

     e(  1 -  1) =     -9.53537  eV     1   --> A              
     e(  2 -  2) =     -9.40236  eV     1   --> A              
     e(  3 -  3) =     -6.08094  eV     1   --> A              
     e(  4 -  4) =     -1.80508  eV     1   --> A              
     e(  5 -  5) =     -1.68288  eV     1   --> A              
     e(  6 -  6) =      2.24649  eV     1   --> A              
     e(  7 -  7) =      3.96274  eV     1   --> A              
     e(  8 -  8) =      4.37101  eV     1   --> A              

 **************************************************************************

 **************************************************************************

                    xk=(   0.33330,   0.57729,   0.00000  )

     Band symmetry, C_1 (1)     point group:

     e(  1 -  1) =     -9.46911  eV     1   --> A              
     e(  2 -  2) =     -9.46811  eV     1   --> A              
     e(  3 -  3) =     -6.08414  eV     1   --> A              
     e(  4 -  4) =     -1.74446  eV     1   --> A              
     e(  5 -  5) =     -1.74295  eV     1   --> A              
     e(  6 -  6) =      2.24324  eV     1   --> A              
     e(  7 -  7) =      4.01926  eV     1   --> A              
     e(  8 -  8) =      4.40251  eV     1   --> A              

 **************************************************************************

 **************************************************************************

                    xk=(   0.32219,   0.55805,   0.00539  )

     Band symmetry, C_1 (1)     point group:

     e(  1 -  1) =     -9.61011  eV     1   --> A              
     e(  2 -  2) =     -9.32852  eV     1   --> A              
     e(  3 -  3) =     -6.07189  eV     1   --> A              
     e(  4 -  4) =     -1.87363  eV     1   --> A              
     e(  5 -  5) =     -1.61552  eV     1   --> A              
     e(  6 -  6) =      2.25577  eV     1   --> A              
     e(  7 -  7) =      3.90505  eV     1   --> A              
     e(  8 -  8) =      4.23740  eV     1   --> A              

 **************************************************************************

 **************************************************************************

                    xk=(   0.31108,   0.53881,   0.01078  )

     Band symmetry, C_1 (1)     point group:

     e(  1 -  1) =     -9.76097  eV     1   --> A              
     e(  2 -  2) =     -9.18014  eV     1   --> A              
     e(  3 -  3) =     -6.03684  eV     1   --> A              
     e(  4 -  4) =     -2.01247  eV     1   --> A              
     e(  5 -  5) =     -1.48070  eV     1   --> A              
     e(  6 -  6) =      2.29178  eV     1   --> A              
     e(  7 -  7) =      3.72014  eV     1   --> A              
     e(  8 -  8) =      4.05277  eV     1   --> A              

 **************************************************************************

 **************************************************************************

                    xk=(   0.29997,   0.51956,   0.01617  )

     Band symmetry, C_1 (1)     point group:

     e(  1 -  1) =     -9.91901  eV     1   --> A              
     e(  2 -  2) =     -9.02315  eV     1   --> A              
     e(  3 -  3) =     -5.98149  eV     1   --> A              
     e(  4 -  4) =     -2.15845  eV     1   --> A              
     e(  5 -  5) =     -1.33914  eV     1   --> A              
     e(  6 -  6) =      2.34887  eV     1   --> A              
     e(  7 -  7) =      3.52460  eV     1   --> A              
     e(  8 -  8) =      3.86153  eV     1   --> A              

 **************************************************************************

 **************************************************************************

                    xk=(   0.28886,   0.50032,   0.02156  )

     Band symmetry, C_1 (1)     point group:

     e(  1 -  1) =    -10.08179  eV     1   --> A              
     e(  2 -  2) =     -8.85762  eV     1   --> A              
     e(  3 -  3) =     -5.90820  eV     1   --> A              
     e(  4 -  4) =     -2.30947  eV     1   --> A              
     e(  5 -  5) =     -1.19119  eV     1   --> A              
     e(  6 -  6) =      2.42416  eV     1   --> A              
     e(  7 -  7) =      3.32909  eV     1   --> A              
     e(  8 -  8) =      3.67070  eV     1   --> A              

 **************************************************************************

 **************************************************************************

                    xk=(   0.27775,   0.48108,   0.02694  )

     Band symmetry, C_1 (1)     point group:

     e(  1 -  1) =    -10.24714  eV     1   --> A              
     e(  2 -  2) =     -8.68366  eV     1   --> A              
     e(  3 -  3) =     -5.81918  eV     1   --> A              
     e(  4 -  4) =     -2.46353  eV     1   --> A              
     e(  5 -  5) =     -1.03730  eV     1   --> A              
     e(  6 -  6) =      2.51384  eV     1   --> A              
     e(  7 -  7) =      3.13743  eV     1   --> A              
     e(  8 -  8) =      3.48531  eV     1   --> A              

 **************************************************************************

 **************************************************************************

                    xk=(   0.26664,   0.46183,   0.03233  )

     Band symmetry, C_1 (1)     point group:

     e(  1 -  1) =    -10.41319  eV     1   --> A              
     e(  2 -  2) =     -8.50135  eV     1   --> A              
     e(  3 -  3) =     -5.71641  eV     1   --> A              
     e(  4 -  4) =     -2.61889  eV     1   --> A              
     e(  5 -  5) =     -0.87804  eV     1   --> A              
     e(  6 -  6) =      2.61113  eV     1   --> A              
     e(  7 -  7) =      2.95158  eV     1   --> A              
     e(  8 -  8) =      3.31193  eV     1   --> A              

 **************************************************************************

 **************************************************************************

                    xk=(   0.25553,   0.44259,   0.03772  )

     Band symmetry, C_1 (1)     point group:

     e(  1 -  1) =    -10.57836  eV     1   --> A              
     e(  2 -  2) =     -8.31082  eV     1   --> A              
     e(  3 -  3) =     -5.60165  eV     1   --> A              
     e(  4 -  4) =     -2.77397  eV     1   --> A              
     e(  5 -  5) =     -0.71415  eV     1   --> A              
     e(  6 -  6) =      2.69816  eV     1   --> A              
     e(  7 -  7) =      2.77281  eV     1   --> A              
     e(  8 -  8) =      3.16761  eV     1   --> A              

 **************************************************************************

 **************************************************************************

                    xk=(   0.24442,   0.42335,   0.04311  )

     Band symmetry, C_1 (1)     point group:

     e(  1 -  1) =    -10.74135  eV     1   --> A              
     e(  2 -  2) =     -8.11221  eV     1   --> A              
     e(  3 -  3) =     -5.47650  eV     1   --> A              
     e(  4 -  4) =     -2.92743  eV     1   --> A              
     e(  5 -  5) =     -0.54657  eV     1   --> A              
     e(  6 -  6) =      2.60190  eV     1   --> A              
     e(  7 -  7) =      2.72012  eV     1   --> A              
     e(  8 -  8) =      3.10576  eV     1   --> A              

 **************************************************************************

 **************************************************************************

                    xk=(   0.23331,   0.40410,   0.04850  )

     Band symmetry, C_1 (1)     point group:

     e(  1 -  1) =    -10.90108  eV     1   --> A              
     e(  2 -  2) =     -7.90568  eV     1   --> A              
     e(  3 -  3) =     -5.34239  eV     1   --> A              
     e(  4 -  4) =     -3.07813  eV     1   --> A              
     e(  5 -  5) =     -0.37652  eV     1   --> A              
     e(  6 -  6) =      2.43949  eV     1   --> A              
     e(  7 -  7) =      2.63324  eV     1   --> A              
     e(  8 -  8) =      3.16798  eV     1   --> A              

 **************************************************************************

 **************************************************************************

                    xk=(   0.22220,   0.38486,   0.05389  )

     Band symmetry, C_1 (1)     point group:

     e(  1 -  1) =    -11.05664  eV     1   --> A              
     e(  2 -  2) =     -7.69141  eV     1   --> A              
     e(  3 -  3) =     -5.20064  eV     1   --> A              
     e(  4 -  4) =     -3.22506  eV     1   --> A              
     e(  5 -  5) =     -0.20558  eV     1   --> A              
     e(  6 -  6) =      2.28607  eV     1   --> A              
     e(  7 -  7) =      2.49659  eV     1   --> A              
     e(  8 -  8) =      3.21371  eV     1   --> A              

 **************************************************************************

 **************************************************************************

                    xk=(   0.21109,   0.36562,   0.05928  )

     Band symmetry, C_1 (1)     point group:

     e(  1 -  1) =    -11.20730  eV     1   --> A              
     e(  2 -  2) =     -7.46966  eV     1   --> A              
     e(  3 -  3) =     -5.05255  eV     1   --> A              
     e(  4 -  4) =     -3.36736  eV     1   --> A              
     e(  5 -  5) =     -0.03587  eV     1   --> A              
     e(  6 -  6) =      2.14204  eV     1   --> A              
     e(  7 -  7) =      2.34928  eV     1   --> A              
     e(  8 -  8) =      3.08164  eV     1   --> A              

 **************************************************************************

 **************************************************************************

                    xk=(   0.19998,   0.34638,   0.06467  )

     Band symmetry, C_1 (1)     point group:

     e(  1 -  1) =    -11.35245  eV     1   --> A              
     e(  2 -  2) =     -7.24069  eV     1   --> A              
     e(  3 -  3) =     -4.89936  eV     1   --> A              
     e(  4 -  4) =     -3.50427  eV     1   --> A              
     e(  5 -  5) =      0.12992  eV     1   --> A              
     e(  6 -  6) =      2.00767  eV     1   --> A              
     e(  7 -  7) =      2.20235  eV     1   --> A              
     e(  8 -  8) =      2.96688  eV     1   --> A              

 **************************************************************************

 **************************************************************************

                    xk=(   0.18887,   0.32713,   0.07006  )

     Band symmetry, C_1 (1)     point group:

     e(  1 -  1) =    -11.49157  eV     1   --> A              
     e(  2 -  2) =     -7.00486  eV     1   --> A              
     e(  3 -  3) =     -4.74230  eV     1   --> A              
     e(  4 -  4) =     -3.63510  eV     1   --> A              
     e(  5 -  5) =      0.28833  eV     1   --> A              
     e(  6 -  6) =      1.88327  eV     1   --> A              
     e(  7 -  7) =      2.05942  eV     1   --> A              
     e(  8 -  8) =      2.87379  eV     1   --> A              

 **************************************************************************

 **************************************************************************

                    xk=(   0.17776,   0.30789,   0.07544  )

     Band symmetry, C_1 (1)     point group:

     e(  1 -  1) =    -11.62424  eV     1   --> A              
     e(  2 -  2) =     -6.76266  eV     1   --> A              
     e(  3 -  3) =     -4.58269  eV     1   --> A              
     e(  4 -  4) =     -3.75915  eV     1   --> A              
     e(  5 -  5) =      0.43515  eV     1   --> A              
     e(  6 -  6) =      1.76903  eV     1   --> A              
     e(  7 -  7) =      1.92187  eV     1   --> A              
     e(  8 -  8) =      2.80618  eV     1   --> A              

 **************************************************************************

 **************************************************************************

                    xk=(   0.16665,   0.28865,   0.08083  )

     Band symmetry, C_1 (1)     point group:

     e(  1 -  1) =    -11.75011  eV     1   --> A              
     e(  2 -  2) =     -6.51472  eV     1   --> A              
     e(  3 -  3) =     -4.42183  eV     1   --> A              
     e(  4 -  4) =     -3.87572  eV     1   --> A              
     e(  5 -  5) =      0.56567  eV     1   --> A              
     e(  6 -  6) =      1.66505  eV     1   --> A              
     e(  7 -  7) =      1.79036  eV     1   --> A              
     e(  8 -  8) =      2.76789  eV     1   --> A              

 **************************************************************************

 **************************************************************************

                    xk=(   0.15554,   0.26940,   0.08622  )

     Band symmetry, C_1 (1)     point group:

     e(  1 -  1) =    -11.86887  eV     1   --> A              
     e(  2 -  2) =     -6.26195  eV     1   --> A              
     e(  3 -  3) =     -4.26116  eV     1   --> A              
     e(  4 -  4) =     -3.98393  eV     1   --> A              
     e(  5 -  5) =      0.67539  eV     1   --> A              
     e(  6 -  6) =      1.57137  eV     1   --> A              
     e(  7 -  7) =      1.66508  eV     1   --> A              
     e(  8 -  8) =      2.76173  eV     1   --> A              

 **************************************************************************

 **************************************************************************

                    xk=(   0.14443,   0.25016,   0.09161  )

     Band symmetry, C_1 (1)     point group:

     e(  1 -  1) =    -11.98027  eV     1   --> A              
     e(  2 -  2) =     -6.00573  eV     1   --> A              
     e(  3 -  3) =     -4.10213  eV     1   --> A              
     e(  4 -  4) =     -4.08259  eV     1   --> A              
     e(  5 -  5) =      0.76120  eV     1   --> A              
     e(  6 -  6) =      1.48815  eV     1   --> A              
     e(  7 -  7) =      1.54601  eV     1   --> A              
     e(  8 -  8) =      2.78731  eV     1   --> A              

 **************************************************************************

 **************************************************************************

                    xk=(   0.13332,   0.23092,   0.09700  )

     Band symmetry, C_1 (1)     point group:

     e(  1 -  1) =    -12.08409  eV     1   --> A              
     e(  2 -  2) =     -5.74835  eV     1   --> A              
     e(  3 -  3) =     -4.16977  eV     1   --> A              
     e(  4 -  4) =     -3.94634  eV     1   --> A              
     e(  5 -  5) =      0.82235  eV     1   --> A              
     e(  6 -  6) =      1.41558  eV     1   --> A              
     e(  7 -  7) =      1.43290  eV     1   --> A              
     e(  8 -  8) =      2.83632  eV     1   --> A              

 **************************************************************************

 **************************************************************************

                    xk=(   0.12221,   0.21167,   0.10239  )

     Band symmetry, C_1 (1)     point group:

     e(  1 -  1) =    -12.18015  eV     1   --> A              
     e(  2 -  2) =     -5.49396  eV     1   --> A              
     e(  3 -  3) =     -4.24185  eV     1   --> A              
     e(  4 -  4) =     -3.79540  eV     1   --> A              
     e(  5 -  5) =      0.86071  eV     1   --> A              
     e(  6 -  6) =      1.32517  eV     1   --> A              
     e(  7 -  7) =      1.35426  eV     1   --> A              
     e(  8 -  8) =      2.87962  eV     1   --> A              

 **************************************************************************

 **************************************************************************

                    xk=(   0.11110,   0.19243,   0.10778  )

     Band symmetry, C_1 (1)     point group:

     e(  1 -  1) =    -12.26829  eV     1   --> A              
     e(  2 -  2) =     -5.25114  eV     1   --> A              
     e(  3 -  3) =     -4.29106  eV     1   --> A              
     e(  4 -  4) =     -3.65099  eV     1   --> A              
     e(  5 -  5) =      0.87977  eV     1   --> A              
     e(  6 -  6) =      1.22193  eV     1   --> A              
     e(  7 -  7) =      1.30498  eV     1   --> A              
     e(  8 -  8) =      2.86326  eV     1   --> A              

 **************************************************************************

 **************************************************************************

                    xk=(   0.09999,   0.17319,   0.11317  )

     Band symmetry, C_1 (1)     point group:

     e(  1 -  1) =    -12.34839  eV     1   --> A              
     e(  2 -  2) =     -5.03881  eV     1   --> A              
     e(  3 -  3) =     -4.29963  eV     1   --> A              
     e(  4 -  4) =     -3.51480  eV     1   --> A              
     e(  5 -  5) =      0.88352  eV     1   --> A              
     e(  6 -  6) =      1.12166  eV     1   --> A              
     e(  7 -  7) =      1.26864  eV     1   --> A              
     e(  8 -  8) =      2.79440  eV     1   --> A              

 **************************************************************************

 **************************************************************************

                    xk=(   0.08888,   0.15394,   0.11856  )

     Band symmetry, C_1 (1)     point group:

     e(  1 -  1) =    -12.42032  eV     1   --> A              
     e(  2 -  2) =     -4.89106  eV     1   --> A              
     e(  3 -  3) =     -4.23513  eV     1   --> A              
     e(  4 -  4) =     -3.38845  eV     1   --> A              
     e(  5 -  5) =      0.87582  eV     1   --> A              
     e(  6 -  6) =      1.02194  eV     1   --> A              
     e(  7 -  7) =      1.24564  eV     1   --> A              
     e(  8 -  8) =      2.69130  eV     1   --> A              

 **************************************************************************

 **************************************************************************

                    xk=(   0.07777,   0.13470,   0.12394  )

     Band symmetry, C_1 (1)     point group:

     e(  1 -  1) =    -12.48399  eV     1   --> A              
     e(  2 -  2) =     -4.82683  eV     1   --> A              
     e(  3 -  3) =     -4.08094  eV     1   --> A              
     e(  4 -  4) =     -3.27351  eV     1   --> A              
     e(  5 -  5) =      0.86038  eV     1   --> A              
     e(  6 -  6) =      0.91907  eV     1   --> A              
     e(  7 -  7) =      1.23525  eV     1   --> A              
     e(  8 -  8) =      2.37254  eV     1   --> A              

 **************************************************************************

 **************************************************************************

                    xk=(   0.06666,   0.11546,   0.12933  )

     Band symmetry, C_1 (1)     point group:

     e(  1 -  1) =    -12.53932  eV     1   --> A              
     e(  2 -  2) =     -4.81759  eV     1   --> A              
     e(  3 -  3) =     -3.86900  eV     1   --> A              
     e(  4 -  4) =     -3.17136  eV     1   --> A              
     e(  5 -  5) =      0.80777  eV     1   --> A              
     e(  6 -  6) =      0.84076  eV     1   --> A              
     e(  7 -  7) =      1.23547  eV     1   --> A              
     e(  8 -  8) =      2.06997  eV     1   --> A              

 **************************************************************************

 **************************************************************************

                    xk=(   0.05555,   0.09622,   0.13472  )

     Band symmetry, C_1 (1)     point group:

     e(  1 -  1) =    -12.58624  eV     1   --> A              
     e(  2 -  2) =     -4.83047  eV     1   --> A              
     e(  3 -  3) =     -3.63708  eV     1   --> A              
     e(  4 -  4) =     -3.08318  eV     1   --> A              
     e(  5 -  5) =      0.68236  eV     1   --> A              
     e(  6 -  6) =      0.82002  eV     1   --> A              
     e(  7 -  7) =      1.24355  eV     1   --> A              
     e(  8 -  8) =      1.81118  eV     1   --> A              

 **************************************************************************

 **************************************************************************

                    xk=(   0.04444,   0.07697,   0.14011  )

     Band symmetry, C_1 (1)     point group:

     e(  1 -  1) =    -12.62470  eV     1   --> A              
     e(  2 -  2) =     -4.84938  eV     1   --> A              
     e(  3 -  3) =     -3.40850  eV     1   --> A              
     e(  4 -  4) =     -3.00991  eV     1   --> A              
     e(  5 -  5) =      0.54083  eV     1   --> A              
     e(  6 -  6) =      0.80055  eV     1   --> A              
     e(  7 -  7) =      1.25633  eV     1   --> A              
     e(  8 -  8) =      1.60685  eV     1   --> A              

 **************************************************************************

 **************************************************************************

                    xk=(   0.03333,   0.05773,   0.14550  )

     Band symmetry, C_1 (1)     point group:

     e(  1 -  1) =    -12.65466  eV     1   --> A              
     e(  2 -  2) =     -4.86750  eV     1   --> A              
     e(  3 -  3) =     -3.20056  eV     1   --> A              
     e(  4 -  4) =     -2.95230  eV     1   --> A              
     e(  5 -  5) =      0.39143  eV     1   --> A              
     e(  6 -  6) =      0.78401  eV     1   --> A              
     e(  7 -  7) =      1.27059  eV     1   --> A              
     e(  8 -  8) =      1.45991  eV     1   --> A              

 **************************************************************************

 **************************************************************************

                    xk=(   0.02222,   0.03849,   0.15089  )

     Band symmetry, C_1 (1)     point group:

     e(  1 -  1) =    -12.67609  eV     1   --> A              
     e(  2 -  2) =     -4.88178  eV     1   --> A              
     e(  3 -  3) =     -3.03063  eV     1   --> A              
     e(  4 -  4) =     -2.91085  eV     1   --> A              
     e(  5 -  5) =      0.25474  eV     1   --> A              
     e(  6 -  6) =      0.77152  eV     1   --> A              
     e(  7 -  7) =      1.28334  eV     1   --> A              
     e(  8 -  8) =      1.36463  eV     1   --> A              

 **************************************************************************

 **************************************************************************

                    xk=(   0.01111,   0.01924,   0.15628  )

     Band symmetry, C_1 (1)     point group:

     e(  1 -  1) =    -12.68895  eV     1   --> A              
     e(  2 -  2) =     -4.89079  eV     1   --> A              
     e(  3 -  3) =     -2.91750  eV     1   --> A              
     e(  4 -  4) =     -2.88586  eV     1   --> A              
     e(  5 -  5) =      0.15733  eV     1   --> A              
     e(  6 -  6) =      0.76378  eV     1   --> A              
     e(  7 -  7) =      1.29208  eV     1   --> A              
     e(  8 -  8) =      1.31197  eV     1   --> A              

 **************************************************************************

 **************************************************************************

                    xk=(   0.00000,   0.00000,   0.16167  )

     point group C_3v (3m)  
     there are  3 classes
     the character table:

       E     2C3   3s_v 
A_1    1.00  1.00  1.00
A_2    1.00  1.00 -1.00
E      2.00 -1.00  0.00

     the symmetry operations in each class and the name of the first element:

     E        1
                                                                 
     2C3      2    3
                                                                 
     3s_v     4    5    6
                                                                 

     Band symmetry, C_3v (3m)   point group:

     e(  1 -  1) =    -12.69324  eV     1   --> A_1  L_1       
     e(  2 -  2) =     -4.89386  eV     1   --> A_1  L_1       
     e(  3 -  4) =     -2.87751  eV     2   --> E    L_3       
     e(  5 -  5) =      0.12186  eV     1   --> A_1  L_1       
     e(  6 -  6) =      0.76116  eV     1   --> A_1  L_1       
     e(  7 -  8) =      1.29520  eV     2   --> E    L_3       

 **************************************************************************
 
     BANDS        :     10.06s CPU     14.13s WALL

 
   This run was terminated on:  18:33:34  18Mar2021            

=------------------------------------------------------------------------------=
   JOB DONE.
=------------------------------------------------------------------------------=
