
     Program BANDS v.6.6 starts on 30Mar2021 at 15:29:58 

     This program is part of the open-source Quantum ESPRESSO suite
     for quantum simulation of materials; please cite
         "P. Giannozzi et al., J. Phys.:Condens. Matter 21 395502 (2009);
         "P. Giannozzi et al., J. Phys.:Condens. Matter 29 465901 (2017);
          URL http://www.quantum-espresso.org", 
     in publications or presentations arising from this work. More details at
     http://www.quantum-espresso.org/quote

     Parallel version (MPI), running on     1 processors

     MPI processes distributed on     1 nodes
     Fft bands division:     nmany     =       1

     Reading xml data from directory:

     /home/jesus/Documentos/Nanociencia_DFT/test.save/

     IMPORTANT: XC functional enforced from input :
     Exchange-correlation= PBE
                           (   1   4   3   4   0   0   0)
     Any further DFT definition will be discarded
     Please, verify this is what you really want

 
     G-vector sticks info
     --------------------
     sticks:   dense  smooth     PW     G-vecs:    dense   smooth      PW
     Sum         889     439    139                66219    23461    3925
 

     negative rho (up, down):  1.872E-06 0.000E+00
     Reading collected, re-writing distributed wavefunctions
     high-symmetry point:  0.0000 0.0000 0.0000   x coordinate   0.0000
     high-symmetry point:  0.5000 0.2887 0.0000   x coordinate   0.5774
     high-symmetry point:  0.3333 0.5773 0.0000   x coordinate   0.9107
     high-symmetry point:  0.0000 0.0000 0.1617   x coordinate   1.5966

     Plottable bands (eV) written to file silicene_bands.gnu
     Bands written to file silicene_bands

 **************************************************************************

                    xk=(   0.00000,   0.00000,   0.00000  )

     point group C_3v (3m)  
     there are  3 classes
     the character table:

       E     2C3   3s_v 
A_1    1.00  1.00  1.00
A_2    1.00  1.00 -1.00
E      2.00 -1.00  0.00

     the symmetry operations in each class and the name of the first element:

     E        1
                                                                 
     2C3      2    3
                                                                 
     3s_v     4    5    6
                                                                 

     Band symmetry, C_3v (3m)   point group:

     e(  1 -  1) =    -12.74002  eV     1   --> A_1  L_1       
     e(  2 -  2) =     -4.92046  eV     1   --> A_1  L_1       
     e(  3 -  4) =     -2.93470  eV     2   --> E    L_3       
     e(  5 -  5) =      0.07691  eV     1   --> A_1  L_1       
     e(  6 -  6) =      0.70900  eV     1   --> A_1  L_1       
     e(  7 -  8) =      1.26676  eV     2   --> E    L_3       

 **************************************************************************

 **************************************************************************

                    xk=(   0.01667,   0.00962,   0.00000  )

     point group C_s (m)    
     there are  2 classes
     the character table:

       E     s    
A'     1.00  1.00
A''    1.00 -1.00

     the symmetry operations in each class and the name of the first element:

     E        1
                                                                 
     s        2
                                                                 

     Band symmetry, C_s (m)     point group:

     e(  1 -  1) =    -12.73681  eV     1   --> A'             
     e(  2 -  2) =     -4.91820  eV     1   --> A'             
     e(  3 -  3) =     -2.96462  eV     1   --> A'             
     e(  4 -  4) =     -2.94089  eV     1   --> A''            
     e(  5 -  5) =      0.10355  eV     1   --> A'             
     e(  6 -  6) =      0.71116  eV     1   --> A'             
     e(  7 -  7) =      1.26440  eV     1   --> A'             
     e(  8 -  8) =      1.27909  eV     1   --> A''            

 **************************************************************************

 **************************************************************************

                    xk=(   0.03333,   0.01925,   0.00000  )

     Band symmetry, C_s (m)     point group:

     e(  1 -  1) =    -12.72716  eV     1   --> A'             
     e(  2 -  2) =     -4.91151  eV     1   --> A'             
     e(  3 -  3) =     -3.05065  eV     1   --> A'             
     e(  4 -  4) =     -2.95918  eV     1   --> A''            
     e(  5 -  5) =      0.17821  eV     1   --> A'             
     e(  6 -  6) =      0.71758  eV     1   --> A'             
     e(  7 -  7) =      1.25933  eV     1   --> A'             
     e(  8 -  8) =      1.31584  eV     1   --> A''            

 **************************************************************************

 **************************************************************************

                    xk=(   0.05000,   0.02887,   0.00000  )

     Band symmetry, C_s (m)     point group:

     e(  1 -  1) =    -12.71110  eV     1   --> A'             
     e(  2 -  2) =     -4.90077  eV     1   --> A'             
     e(  3 -  3) =     -3.18342  eV     1   --> A'             
     e(  4 -  4) =     -2.98887  eV     1   --> A''            
     e(  5 -  5) =      0.28603  eV     1   --> A'             
     e(  6 -  6) =      0.72805  eV     1   --> A'             
     e(  7 -  7) =      1.25841  eV     1   --> A'             
     e(  8 -  8) =      1.37630  eV     1   --> A''            

 **************************************************************************

 **************************************************************************

                    xk=(   0.06667,   0.03849,   0.00000  )

     Band symmetry, C_s (m)     point group:

     e(  1 -  1) =    -12.68862  eV     1   --> A'             
     e(  2 -  2) =     -4.88676  eV     1   --> A'             
     e(  3 -  3) =     -3.35127  eV     1   --> A'             
     e(  4 -  4) =     -3.02891  eV     1   --> A''            
     e(  5 -  5) =      0.40357  eV     1   --> A'             
     e(  6 -  6) =      0.74234  eV     1   --> A'             
     e(  7 -  7) =      1.27554  eV     1   --> A'             
     e(  8 -  8) =      1.45928  eV     1   --> A''            

 **************************************************************************

 **************************************************************************

                    xk=(   0.08333,   0.04811,   0.00000  )

     Band symmetry, C_s (m)     point group:

     e(  1 -  1) =    -12.65976  eV     1   --> A'             
     e(  2 -  2) =     -4.87097  eV     1   --> A'             
     e(  3 -  3) =     -3.54270  eV     1   --> A'             
     e(  4 -  4) =     -3.07792  eV     1   --> A''            
     e(  5 -  5) =      0.50026  eV     1   --> A'             
     e(  6 -  6) =      0.76040  eV     1   --> A'             
     e(  7 -  7) =      1.33265  eV     1   --> A'             
     e(  8 -  8) =      1.56346  eV     1   --> A''            

 **************************************************************************

 **************************************************************************

                    xk=(   0.10000,   0.05774,   0.00000  )

     Band symmetry, C_s (m)     point group:

     e(  1 -  1) =    -12.62453  eV     1   --> A'             
     e(  2 -  2) =     -4.85636  eV     1   --> A'             
     e(  3 -  3) =     -3.74675  eV     1   --> A'             
     e(  4 -  4) =     -3.13447  eV     1   --> A''            
     e(  5 -  5) =      0.54926  eV     1   --> A'             
     e(  6 -  6) =      0.78234  eV     1   --> A'             
     e(  7 -  7) =      1.44945  eV     1   --> A'             
     e(  8 -  8) =      1.68723  eV     1   --> A''            

 **************************************************************************

 **************************************************************************

                    xk=(   0.11667,   0.06736,   0.00000  )

     Band symmetry, C_s (m)     point group:

     e(  1 -  1) =    -12.58297  eV     1   --> A'             
     e(  2 -  2) =     -4.84917  eV     1   --> A'             
     e(  3 -  3) =     -3.95111  eV     1   --> A'             
     e(  4 -  4) =     -3.19702  eV     1   --> A''            
     e(  5 -  5) =      0.54685  eV     1   --> A'             
     e(  6 -  6) =      0.80703  eV     1   --> A'             
     e(  7 -  7) =      1.62551  eV     1   --> A'             
     e(  8 -  8) =      1.82893  eV     1   --> A''            

 **************************************************************************

 **************************************************************************

                    xk=(   0.13333,   0.07698,   0.00000  )

     Band symmetry, C_s (m)     point group:

     e(  1 -  1) =    -12.53512  eV     1   --> A'             
     e(  2 -  2) =     -4.86310  eV     1   --> A'             
     e(  3 -  3) =     -4.13769  eV     1   --> A'             
     e(  4 -  4) =     -3.26410  eV     1   --> A''            
     e(  5 -  5) =      0.50760  eV     1   --> A'             
     e(  6 -  6) =      0.83233  eV     1   --> A'             
     e(  7 -  7) =      1.84369  eV     1   --> A'             
     e(  8 -  8) =      1.98697  eV     1   --> A''            

 **************************************************************************

 **************************************************************************

                    xk=(   0.15000,   0.08660,   0.00000  )

     Band symmetry, C_s (m)     point group:

     e(  1 -  1) =    -12.48101  eV     1   --> A'             
     e(  2 -  2) =     -4.92378  eV     1   --> A'             
     e(  3 -  3) =     -4.27763  eV     1   --> A'             
     e(  4 -  4) =     -3.33438  eV     1   --> A''            
     e(  5 -  5) =      0.44601  eV     1   --> A'             
     e(  6 -  6) =      0.85640  eV     1   --> A'             
     e(  7 -  7) =      2.08577  eV     1   --> A'             
     e(  8 -  8) =      2.15972  eV     1   --> A''            

 **************************************************************************

 **************************************************************************

                    xk=(   0.16667,   0.09623,   0.00000  )

     Band symmetry, C_s (m)     point group:

     e(  1 -  1) =    -12.42072  eV     1   --> A'             
     e(  2 -  2) =     -5.05373  eV     1   --> A'             
     e(  3 -  3) =     -4.34604  eV     1   --> A'             
     e(  4 -  4) =     -3.40665  eV     1   --> A''            
     e(  5 -  5) =      0.37142  eV     1   --> A'             
     e(  6 -  6) =      0.87710  eV     1   --> A'             
     e(  7 -  7) =      2.33430  eV     1   --> A'             
     e(  8 -  8) =      2.34563  eV     1   --> A''            

 **************************************************************************

 **************************************************************************

                    xk=(   0.18333,   0.10585,   0.00000  )

     Band symmetry, C_s (m)     point group:

     e(  1 -  1) =    -12.35431  eV     1   --> A'             
     e(  2 -  2) =     -5.24191  eV     1   --> A'             
     e(  3 -  3) =     -4.35217  eV     1   --> A'             
     e(  4 -  4) =     -3.47978  eV     1   --> A''            
     e(  5 -  5) =      0.28942  eV     1   --> A'             
     e(  6 -  6) =      0.89155  eV     1   --> A'             
     e(  7 -  7) =      2.54327  eV     1   --> A''            
     e(  8 -  8) =      2.55496  eV     1   --> A'             

 **************************************************************************

 **************************************************************************

                    xk=(   0.20000,   0.11547,   0.00000  )

     Band symmetry, C_s (m)     point group:

     e(  1 -  1) =    -12.28186  eV     1   --> A'             
     e(  2 -  2) =     -5.46194  eV     1   --> A'             
     e(  3 -  3) =     -4.32107  eV     1   --> A'             
     e(  4 -  4) =     -3.55283  eV     1   --> A''            
     e(  5 -  5) =      0.20358  eV     1   --> A'             
     e(  6 -  6) =      0.89595  eV     1   --> A'             
     e(  7 -  7) =      2.65910  eV     1   --> A'             
     e(  8 -  8) =      2.75105  eV     1   --> A''            

 **************************************************************************

 **************************************************************************

                    xk=(   0.21667,   0.12509,   0.00000  )

     Band symmetry, C_s (m)     point group:

     e(  1 -  1) =    -12.20347  eV     1   --> A'             
     e(  2 -  2) =     -5.69677  eV     1   --> A'             
     e(  3 -  3) =     -4.26877  eV     1   --> A'             
     e(  4 -  4) =     -3.62500  eV     1   --> A''            
     e(  5 -  5) =      0.11623  eV     1   --> A'             
     e(  6 -  6) =      0.88570  eV     1   --> A'             
     e(  7 -  7) =      2.64377  eV     1   --> A'             
     e(  8 -  8) =      2.96733  eV     1   --> A''            

 **************************************************************************

 **************************************************************************

                    xk=(   0.23333,   0.13472,   0.00000  )

     Band symmetry, C_s (m)     point group:

     e(  1 -  1) =    -12.11927  eV     1   --> A'             
     e(  2 -  2) =     -5.93794  eV     1   --> A'             
     e(  3 -  3) =     -4.20291  eV     1   --> A'             
     e(  4 -  4) =     -3.69558  eV     1   --> A''            
     e(  5 -  5) =      0.02900  eV     1   --> A'             
     e(  6 -  6) =      0.85603  eV     1   --> A'             
     e(  7 -  7) =      2.59907  eV     1   --> A'             
     e(  8 -  8) =      3.19026  eV     1   --> A''            

 **************************************************************************

 **************************************************************************

                    xk=(   0.25000,   0.14434,   0.00000  )

     Band symmetry, C_s (m)     point group:

     e(  1 -  1) =    -12.02940  eV     1   --> A'             
     e(  2 -  2) =     -6.18110  eV     1   --> A'             
     e(  3 -  3) =     -4.12722  eV     1   --> A'             
     e(  4 -  4) =     -3.76398  eV     1   --> A''            
     e(  5 -  5) =     -0.05694  eV     1   --> A'             
     e(  6 -  6) =      0.80304  eV     1   --> A'             
     e(  7 -  7) =      2.56179  eV     1   --> A'             
     e(  8 -  8) =      3.41751  eV     1   --> A''            

 **************************************************************************

 **************************************************************************

                    xk=(   0.26667,   0.15396,   0.00000  )

     Band symmetry, C_s (m)     point group:

     e(  1 -  1) =    -11.93405  eV     1   --> A'             
     e(  2 -  2) =     -6.42371  eV     1   --> A'             
     e(  3 -  3) =     -4.04369  eV     1   --> A'             
     e(  4 -  4) =     -3.82967  eV     1   --> A''            
     e(  5 -  5) =     -0.14074  eV     1   --> A'             
     e(  6 -  6) =      0.72507  eV     1   --> A'             
     e(  7 -  7) =      2.54505  eV     1   --> A'             
     e(  8 -  8) =      3.64600  eV     1   --> A''            

 **************************************************************************

 **************************************************************************

                    xk=(   0.28333,   0.16358,   0.00000  )

     Band symmetry, C_s (m)     point group:

     e(  1 -  1) =    -11.83344  eV     1   --> A'             
     e(  2 -  2) =     -6.66413  eV     1   --> A'             
     e(  3 -  3) =     -3.95359  eV     1   --> A'             
     e(  4 -  4) =     -3.89222  eV     1   --> A''            
     e(  5 -  5) =     -0.22185  eV     1   --> A'             
     e(  6 -  6) =      0.62340  eV     1   --> A'             
     e(  7 -  7) =      2.55328  eV     1   --> A'             
     e(  8 -  8) =      3.87133  eV     1   --> A''            

 **************************************************************************

 **************************************************************************

                    xk=(   0.30000,   0.17321,   0.00000  )

     Band symmetry, C_s (m)     point group:

     e(  1 -  1) =    -11.72787  eV     1   --> A'             
     e(  2 -  2) =     -6.90114  eV     1   --> A'             
     e(  3 -  3) =     -3.95128  eV     1   --> A''            
     e(  4 -  4) =     -3.85782  eV     1   --> A'             
     e(  5 -  5) =     -0.30000  eV     1   --> A'             
     e(  6 -  6) =      0.50185  eV     1   --> A'             
     e(  7 -  7) =      2.58632  eV     1   --> A'             
     e(  8 -  8) =      4.08726  eV     1   --> A''            

 **************************************************************************

 **************************************************************************

                    xk=(   0.31667,   0.18283,   0.00000  )

     Band symmetry, C_s (m)     point group:

     e(  1 -  1) =    -11.61771  eV     1   --> A'             
     e(  2 -  2) =     -7.13368  eV     1   --> A'             
     e(  3 -  3) =     -4.00652  eV     1   --> A''            
     e(  4 -  4) =     -3.75718  eV     1   --> A'             
     e(  5 -  5) =     -0.37515  eV     1   --> A'             
     e(  6 -  6) =      0.36571  eV     1   --> A'             
     e(  7 -  7) =      2.64166  eV     1   --> A'             
     e(  8 -  8) =      4.25417  eV     1   -->   ?

 **************************************************************************

 **************************************************************************

                    xk=(   0.33333,   0.19245,   0.00000  )

     Band symmetry, C_s (m)     point group:

     e(  1 -  1) =    -11.50345  eV     1   --> A'             
     e(  2 -  2) =     -7.36077  eV     1   --> A'             
     e(  3 -  3) =     -4.05767  eV     1   --> A''            
     e(  4 -  4) =     -3.65244  eV     1   --> A'             
     e(  5 -  5) =     -0.44768  eV     1   --> A'             
     e(  6 -  6) =      0.22079  eV     1   --> A'             
     e(  7 -  7) =      2.71597  eV     1   --> A'             
     e(  8 -  8) =      4.37389  eV     1   --> A'             

 **************************************************************************

 **************************************************************************

                    xk=(   0.35000,   0.20207,   0.00000  )

     Band symmetry, C_s (m)     point group:

     e(  1 -  1) =    -11.38575  eV     1   --> A'             
     e(  2 -  2) =     -7.58138  eV     1   --> A'             
     e(  3 -  3) =     -4.10452  eV     1   --> A''            
     e(  4 -  4) =     -3.54450  eV     1   --> A'             
     e(  5 -  5) =     -0.51848  eV     1   --> A'             
     e(  6 -  6) =      0.07292  eV     1   --> A'             
     e(  7 -  7) =      2.80596  eV     1   --> A'             
     e(  8 -  8) =      4.49391  eV     1   --> A'             

 **************************************************************************

 **************************************************************************

                    xk=(   0.36667,   0.21170,   0.00000  )

     Band symmetry, C_s (m)     point group:

     e(  1 -  1) =    -11.26548  eV     1   --> A'             
     e(  2 -  2) =     -7.79433  eV     1   --> A'             
     e(  3 -  3) =     -4.14688  eV     1   --> A''            
     e(  4 -  4) =     -3.43441  eV     1   --> A'             
     e(  5 -  5) =     -0.58921  eV     1   --> A'             
     e(  6 -  6) =     -0.07180  eV     1   --> A'             
     e(  7 -  7) =      2.90866  eV     1   --> A'             
     e(  8 -  8) =      4.61031  eV     1   --> A'             

 **************************************************************************

 **************************************************************************

                    xk=(   0.38333,   0.22132,   0.00000  )

     Band symmetry, C_s (m)     point group:

     e(  1 -  1) =    -11.14389  eV     1   --> A'             
     e(  2 -  2) =     -7.99817  eV     1   --> A'             
     e(  3 -  3) =     -4.18458  eV     1   --> A''            
     e(  4 -  4) =     -3.32357  eV     1   --> A'             
     e(  5 -  5) =     -0.66256  eV     1   --> A'             
     e(  6 -  6) =     -0.20676  eV     1   --> A'             
     e(  7 -  7) =      3.02135  eV     1   --> A'             
     e(  8 -  8) =      4.71635  eV     1   -->   ?

 **************************************************************************

 **************************************************************************

                    xk=(   0.40000,   0.23094,   0.00000  )

     Band symmetry, C_s (m)     point group:

     e(  1 -  1) =    -11.02272  eV     1   --> A'             
     e(  2 -  2) =     -8.19095  eV     1   --> A'             
     e(  3 -  3) =     -4.21749  eV     1   --> A''            
     e(  4 -  4) =     -3.21381  eV     1   --> A'             
     e(  5 -  5) =     -0.74181  eV     1   --> A'             
     e(  6 -  6) =     -0.32482  eV     1   --> A'             
     e(  7 -  7) =      3.14139  eV     1   --> A'             
     e(  8 -  8) =      4.76721  eV     1   -->   ?

 **************************************************************************

 **************************************************************************

                    xk=(   0.41667,   0.24056,   0.00000  )

     Band symmetry, C_s (m)     point group:

     e(  1 -  1) =    -10.90450  eV     1   --> A'             
     e(  2 -  2) =     -8.36999  eV     1   --> A'             
     e(  3 -  3) =     -4.24552  eV     1   --> A''            
     e(  4 -  4) =     -3.10767  eV     1   --> A'             
     e(  5 -  5) =     -0.82861  eV     1   --> A'             
     e(  6 -  6) =     -0.42028  eV     1   --> A'             
     e(  7 -  7) =      3.26588  eV     1   --> A'             
     e(  8 -  8) =      4.78348  eV     1   --> A''            

 **************************************************************************

 **************************************************************************

                    xk=(   0.43333,   0.25019,   0.00000  )

     Band symmetry, C_s (m)     point group:

     e(  1 -  1) =    -10.79288  eV     1   --> A'             
     e(  2 -  2) =     -8.53152  eV     1   --> A'             
     e(  3 -  3) =     -4.26856  eV     1   --> A''            
     e(  4 -  4) =     -3.00859  eV     1   --> A'             
     e(  5 -  5) =     -0.91989  eV     1   --> A'             
     e(  6 -  6) =     -0.49166  eV     1   --> A'             
     e(  7 -  7) =      3.39104  eV     1   --> A'             
     e(  8 -  8) =      4.79038  eV     1   -->   ?

 **************************************************************************

 **************************************************************************

                    xk=(   0.45000,   0.25981,   0.00000  )

     Band symmetry, C_s (m)     point group:

     e(  1 -  1) =    -10.69307  eV     1   --> A'             
     e(  2 -  2) =     -8.67024  eV     1   --> A'             
     e(  3 -  3) =     -4.28654  eV     1   --> A''            
     e(  4 -  4) =     -2.92125  eV     1   --> A'             
     e(  5 -  5) =     -1.00741  eV     1   --> A'             
     e(  6 -  6) =     -0.54168  eV     1   --> A'             
     e(  7 -  7) =      3.51126  eV     1   --> A'             
     e(  8 -  8) =      4.76210  eV     1   --> A'             

 **************************************************************************

 **************************************************************************

                    xk=(   0.46667,   0.26943,   0.00000  )

     Band symmetry, C_s (m)     point group:

     e(  1 -  1) =    -10.61213  eV     1   --> A'             
     e(  2 -  2) =     -8.77902  eV     1   --> A'             
     e(  3 -  3) =     -4.29944  eV     1   --> A''            
     e(  4 -  4) =     -2.85155  eV     1   --> A'             
     e(  5 -  5) =     -1.08066  eV     1   --> A'             
     e(  6 -  6) =     -0.57441  eV     1   --> A'             
     e(  7 -  7) =      3.61733  eV     1   --> A'             
     e(  8 -  8) =      4.68551  eV     1   --> A'             

 **************************************************************************

 **************************************************************************

                    xk=(   0.48333,   0.27905,   0.00000  )

     Band symmetry, C_s (m)     point group:

     e(  1 -  1) =    -10.55844  eV     1   --> A'             
     e(  2 -  2) =     -8.84943  eV     1   --> A'             
     e(  3 -  3) =     -4.30718  eV     1   --> A''            
     e(  4 -  4) =     -2.80599  eV     1   --> A'             
     e(  5 -  5) =     -1.12964  eV     1   --> A'             
     e(  6 -  6) =     -0.59290  eV     1   --> A'             
     e(  7 -  7) =      3.69436  eV     1   --> A'             
     e(  8 -  8) =      4.62160  eV     1   --> A'             

 **************************************************************************

 **************************************************************************

                    xk=(   0.50000,   0.28868,   0.00000  )

     Band symmetry, C_s (m)     point group:

     e(  1 -  1) =    -10.53951  eV     1   --> A'             
     e(  2 -  2) =     -8.87394  eV     1   --> A'             
     e(  3 -  3) =     -4.30979  eV     1   --> A''            
     e(  4 -  4) =     -2.79007  eV     1   --> A'             
     e(  5 -  5) =     -1.14690  eV     1   --> A'             
     e(  6 -  6) =     -0.59889  eV     1   --> A'             
     e(  7 -  7) =      3.72338  eV     1   --> A'             
     e(  8 -  8) =      4.59627  eV     1   --> A'             

 **************************************************************************

 **************************************************************************

                    xk=(   0.49444,   0.29830,   0.00000  )

     point group C_1 (1)    
     there are  1 classes
     the character table:

       E    
A      1.00

     the symmetry operations in each class and the name of the first element:

     E        1
                                                                 

     Band symmetry, C_1 (1)     point group:

     e(  1 -  1) =    -10.53837  eV     1   --> A              
     e(  2 -  2) =     -8.87400  eV     1   --> A              
     e(  3 -  3) =     -4.31777  eV     1   --> A              
     e(  4 -  4) =     -2.78817  eV     1   --> A              
     e(  5 -  5) =     -1.14704  eV     1   --> A              
     e(  6 -  6) =     -0.58872  eV     1   --> A              
     e(  7 -  7) =      3.72135  eV     1   --> A              
     e(  8 -  8) =      4.59710  eV     1   --> A              

 **************************************************************************

 **************************************************************************

                    xk=(   0.48889,   0.30792,   0.00000  )

     Band symmetry, C_1 (1)     point group:

     e(  1 -  1) =    -10.53494  eV     1   --> A              
     e(  2 -  2) =     -8.87420  eV     1   --> A              
     e(  3 -  3) =     -4.34143  eV     1   --> A              
     e(  4 -  4) =     -2.78257  eV     1   --> A              
     e(  5 -  5) =     -1.14746  eV     1   --> A              
     e(  6 -  6) =     -0.55848  eV     1   --> A              
     e(  7 -  7) =      3.71504  eV     1   --> A              
     e(  8 -  8) =      4.59958  eV     1   --> A              

 **************************************************************************

 **************************************************************************

                    xk=(   0.48333,   0.31754,   0.00000  )

     Band symmetry, C_1 (1)     point group:

     e(  1 -  1) =    -10.52923  eV     1   --> A              
     e(  2 -  2) =     -8.87455  eV     1   --> A              
     e(  3 -  3) =     -4.37977  eV     1   --> A              
     e(  4 -  4) =     -2.77354  eV     1   --> A              
     e(  5 -  5) =     -1.14820  eV     1   --> A              
     e(  6 -  6) =     -0.50887  eV     1   --> A              
     e(  7 -  7) =      3.70376  eV     1   --> A              
     e(  8 -  8) =      4.60369  eV     1   --> A              

 **************************************************************************

 **************************************************************************

                    xk=(   0.47777,   0.32716,   0.00000  )

     Band symmetry, C_1 (1)     point group:

     e(  1 -  1) =    -10.52123  eV     1   --> A              
     e(  2 -  2) =     -8.87511  eV     1   --> A              
     e(  3 -  3) =     -4.43133  eV     1   --> A              
     e(  4 -  4) =     -2.76146  eV     1   --> A              
     e(  5 -  5) =     -1.14929  eV     1   --> A              
     e(  6 -  6) =     -0.44094  eV     1   --> A              
     e(  7 -  7) =      3.68639  eV     1   --> A              
     e(  8 -  8) =      4.60444  eV     1   --> A              

 **************************************************************************

 **************************************************************************

                    xk=(   0.47222,   0.33678,   0.00000  )

     Band symmetry, C_1 (1)     point group:

     e(  1 -  1) =    -10.51096  eV     1   --> A              
     e(  2 -  2) =     -8.87595  eV     1   --> A              
     e(  3 -  3) =     -4.49435  eV     1   --> A              
     e(  4 -  4) =     -2.74670  eV     1   --> A              
     e(  5 -  5) =     -1.15080  eV     1   --> A              
     e(  6 -  6) =     -0.35601  eV     1   --> A              
     e(  7 -  7) =      3.66143  eV     1   --> A              
     e(  8 -  8) =      4.53486  eV     1   --> A              

 **************************************************************************

 **************************************************************************

                    xk=(   0.46666,   0.34640,   0.00000  )

     Band symmetry, C_1 (1)     point group:

     e(  1 -  1) =    -10.49840  eV     1   --> A              
     e(  2 -  2) =     -8.87715  eV     1   --> A              
     e(  3 -  3) =     -4.56695  eV     1   --> A              
     e(  4 -  4) =     -2.72961  eV     1   --> A              
     e(  5 -  5) =     -1.15282  eV     1   --> A              
     e(  6 -  6) =     -0.25550  eV     1   --> A              
     e(  7 -  7) =      3.62725  eV     1   --> A              
     e(  8 -  8) =      4.47018  eV     1   --> A              

 **************************************************************************

 **************************************************************************

                    xk=(   0.46110,   0.35602,   0.00000  )

     Band symmetry, C_1 (1)     point group:

     e(  1 -  1) =    -10.48355  eV     1   --> A              
     e(  2 -  2) =     -8.87882  eV     1   --> A              
     e(  3 -  3) =     -4.64728  eV     1   --> A              
     e(  4 -  4) =     -2.71046  eV     1   --> A              
     e(  5 -  5) =     -1.15542  eV     1   --> A              
     e(  6 -  6) =     -0.14089  eV     1   --> A              
     e(  7 -  7) =      3.58252  eV     1   --> A              
     e(  8 -  8) =      4.41444  eV     1   --> A              

 **************************************************************************

 **************************************************************************

                    xk=(   0.45555,   0.36564,   0.00000  )

     Band symmetry, C_1 (1)     point group:

     e(  1 -  1) =    -10.46643  eV     1   --> A              
     e(  2 -  2) =     -8.88109  eV     1   --> A              
     e(  3 -  3) =     -4.73359  eV     1   --> A              
     e(  4 -  4) =     -2.68944  eV     1   --> A              
     e(  5 -  5) =     -1.15874  eV     1   --> A              
     e(  6 -  6) =     -0.01370  eV     1   --> A              
     e(  7 -  7) =      3.52670  eV     1   --> A              
     e(  8 -  8) =      4.37007  eV     1   --> A              

 **************************************************************************

 **************************************************************************

                    xk=(   0.44999,   0.37526,   0.00000  )

     Band symmetry, C_1 (1)     point group:

     e(  1 -  1) =    -10.44703  eV     1   --> A              
     e(  2 -  2) =     -8.88412  eV     1   --> A              
     e(  3 -  3) =     -4.82429  eV     1   --> A              
     e(  4 -  4) =     -2.66665  eV     1   --> A              
     e(  5 -  5) =     -1.16292  eV     1   --> A              
     e(  6 -  6) =      0.12473  eV     1   --> A              
     e(  7 -  7) =      3.46041  eV     1   --> A              
     e(  8 -  8) =      4.33789  eV     1   --> A              

 **************************************************************************

 **************************************************************************

                    xk=(   0.44443,   0.38488,   0.00000  )

     Band symmetry, C_1 (1)     point group:

     e(  1 -  1) =    -10.42536  eV     1   --> A              
     e(  2 -  2) =     -8.88806  eV     1   --> A              
     e(  3 -  3) =     -4.91794  eV     1   --> A              
     e(  4 -  4) =     -2.64215  eV     1   --> A              
     e(  5 -  5) =     -1.16809  eV     1   --> A              
     e(  6 -  6) =      0.27317  eV     1   --> A              
     e(  7 -  7) =      3.38526  eV     1   --> A              
     e(  8 -  8) =      4.31734  eV     1   --> A              

 **************************************************************************

 **************************************************************************

                    xk=(   0.43888,   0.39450,   0.00000  )

     Band symmetry, C_1 (1)     point group:

     e(  1 -  1) =    -10.40141  eV     1   --> A              
     e(  2 -  2) =     -8.89312  eV     1   --> A              
     e(  3 -  3) =     -5.01324  eV     1   --> A              
     e(  4 -  4) =     -2.61596  eV     1   --> A              
     e(  5 -  5) =     -1.17443  eV     1   --> A              
     e(  6 -  6) =      0.43057  eV     1   --> A              
     e(  7 -  7) =      3.30346  eV     1   --> A              
     e(  8 -  8) =      4.30707  eV     1   --> A              

 **************************************************************************

 **************************************************************************

                    xk=(   0.43332,   0.40412,   0.00000  )

     Band symmetry, C_1 (1)     point group:

     e(  1 -  1) =    -10.37518  eV     1   --> A              
     e(  2 -  2) =     -8.89952  eV     1   --> A              
     e(  3 -  3) =     -5.10905  eV     1   --> A              
     e(  4 -  4) =     -2.58806  eV     1   --> A              
     e(  5 -  5) =     -1.18214  eV     1   --> A              
     e(  6 -  6) =      0.59586  eV     1   --> A              
     e(  7 -  7) =      3.21730  eV     1   --> A              
     e(  8 -  8) =      4.30547  eV     1   --> A              

 **************************************************************************

 **************************************************************************

                    xk=(   0.42776,   0.41374,   0.00000  )

     Band symmetry, C_1 (1)     point group:

     e(  1 -  1) =    -10.34669  eV     1   --> A              
     e(  2 -  2) =     -8.90750  eV     1   --> A              
     e(  3 -  3) =     -5.20435  eV     1   --> A              
     e(  4 -  4) =     -2.55845  eV     1   --> A              
     e(  5 -  5) =     -1.19140  eV     1   --> A              
     e(  6 -  6) =      0.76825  eV     1   --> A              
     e(  7 -  7) =      3.12890  eV     1   --> A              
     e(  8 -  8) =      4.31100  eV     1   --> A              

 **************************************************************************

 **************************************************************************

                    xk=(   0.42221,   0.42336,   0.00000  )

     Band symmetry, C_1 (1)     point group:

     e(  1 -  1) =    -10.31592  eV     1   --> A              
     e(  2 -  2) =     -8.91731  eV     1   --> A              
     e(  3 -  3) =     -5.29821  eV     1   --> A              
     e(  4 -  4) =     -2.52709  eV     1   --> A              
     e(  5 -  5) =     -1.20243  eV     1   --> A              
     e(  6 -  6) =      0.94694  eV     1   --> A              
     e(  7 -  7) =      3.04001  eV     1   --> A              
     e(  8 -  8) =      4.32235  eV     1   --> A              

 **************************************************************************

 **************************************************************************

                    xk=(   0.41665,   0.43298,   0.00000  )

     Band symmetry, C_1 (1)     point group:

     e(  1 -  1) =    -10.28290  eV     1   --> A              
     e(  2 -  2) =     -8.92922  eV     1   --> A              
     e(  3 -  3) =     -5.38978  eV     1   --> A              
     e(  4 -  4) =     -2.49395  eV     1   --> A              
     e(  5 -  5) =     -1.21547  eV     1   --> A              
     e(  6 -  6) =      1.13127  eV     1   --> A              
     e(  7 -  7) =      2.95213  eV     1   --> A              
     e(  8 -  8) =      4.33847  eV     1   --> A              

 **************************************************************************

 **************************************************************************

                    xk=(   0.41109,   0.44260,   0.00000  )

     Band symmetry, C_1 (1)     point group:

     e(  1 -  1) =    -10.24761  eV     1   --> A              
     e(  2 -  2) =     -8.94353  eV     1   --> A              
     e(  3 -  3) =     -5.47830  eV     1   --> A              
     e(  4 -  4) =     -2.45901  eV     1   --> A              
     e(  5 -  5) =     -1.23073  eV     1   --> A              
     e(  6 -  6) =      1.32066  eV     1   --> A              
     e(  7 -  7) =      2.86646  eV     1   --> A              
     e(  8 -  8) =      4.35845  eV     1   --> A              

 **************************************************************************

 **************************************************************************

                    xk=(   0.40554,   0.45222,   0.00000  )

     Band symmetry, C_1 (1)     point group:

     e(  1 -  1) =    -10.21006  eV     1   --> A              
     e(  2 -  2) =     -8.96053  eV     1   --> A              
     e(  3 -  3) =     -5.56308  eV     1   --> A              
     e(  4 -  4) =     -2.42224  eV     1   --> A              
     e(  5 -  5) =     -1.24845  eV     1   --> A              
     e(  6 -  6) =      1.51459  eV     1   --> A              
     e(  7 -  7) =      2.78400  eV     1   --> A              
     e(  8 -  8) =      4.38155  eV     1   --> A              

 **************************************************************************

 **************************************************************************

                    xk=(   0.39998,   0.46185,   0.00000  )

     Band symmetry, C_1 (1)     point group:

     e(  1 -  1) =    -10.17025  eV     1   --> A              
     e(  2 -  2) =     -8.98051  eV     1   --> A              
     e(  3 -  3) =     -5.64346  eV     1   --> A              
     e(  4 -  4) =     -2.38362  eV     1   --> A              
     e(  5 -  5) =     -1.26885  eV     1   --> A              
     e(  6 -  6) =      1.71258  eV     1   --> A              
     e(  7 -  7) =      2.70552  eV     1   --> A              
     e(  8 -  8) =      4.40703  eV     1   --> A              

 **************************************************************************

 **************************************************************************

                    xk=(   0.39442,   0.47147,   0.00000  )

     Band symmetry, C_1 (1)     point group:

     e(  1 -  1) =    -10.12819  eV     1   --> A              
     e(  2 -  2) =     -9.00376  eV     1   --> A              
     e(  3 -  3) =     -5.71887  eV     1   --> A              
     e(  4 -  4) =     -2.34314  eV     1   --> A              
     e(  5 -  5) =     -1.29216  eV     1   --> A              
     e(  6 -  6) =      1.91419  eV     1   --> A              
     e(  7 -  7) =      2.63173  eV     1   --> A              
     e(  8 -  8) =      4.43420  eV     1   --> A              

 **************************************************************************

 **************************************************************************

                    xk=(   0.38887,   0.48109,   0.00000  )

     Band symmetry, C_1 (1)     point group:

     e(  1 -  1) =    -10.08388  eV     1   --> A              
     e(  2 -  2) =     -9.03053  eV     1   --> A              
     e(  3 -  3) =     -5.78881  eV     1   --> A              
     e(  4 -  4) =     -2.30077  eV     1   --> A              
     e(  5 -  5) =     -1.31857  eV     1   --> A              
     e(  6 -  6) =      2.11895  eV     1   --> A              
     e(  7 -  7) =      2.56316  eV     1   --> A              
     e(  8 -  8) =      4.46223  eV     1   --> A              

 **************************************************************************

 **************************************************************************

                    xk=(   0.38331,   0.49071,   0.00000  )

     Band symmetry, C_1 (1)     point group:

     e(  1 -  1) =    -10.03733  eV     1   --> A              
     e(  2 -  2) =     -9.06107  eV     1   --> A              
     e(  3 -  3) =     -5.85281  eV     1   --> A              
     e(  4 -  4) =     -2.25652  eV     1   --> A              
     e(  5 -  5) =     -1.34826  eV     1   --> A              
     e(  6 -  6) =      2.32638  eV     1   --> A              
     e(  7 -  7) =      2.50032  eV     1   --> A              
     e(  8 -  8) =      4.49014  eV     1   --> A              

 **************************************************************************

 **************************************************************************

                    xk=(   0.37775,   0.50033,   0.00000  )

     Band symmetry, C_1 (1)     point group:

     e(  1 -  1) =     -9.98854  eV     1   --> A              
     e(  2 -  2) =     -9.09556  eV     1   --> A              
     e(  3 -  3) =     -5.91050  eV     1   --> A              
     e(  4 -  4) =     -2.21037  eV     1   --> A              
     e(  5 -  5) =     -1.38137  eV     1   --> A              
     e(  6 -  6) =      2.44358  eV     1   --> A              
     e(  7 -  7) =      2.53595  eV     1   --> A              
     e(  8 -  8) =      4.51660  eV     1   --> A              

 **************************************************************************

 **************************************************************************

                    xk=(   0.37220,   0.50995,   0.00000  )

     Band symmetry, C_1 (1)     point group:

     e(  1 -  1) =     -9.93752  eV     1   --> A              
     e(  2 -  2) =     -9.13415  eV     1   --> A              
     e(  3 -  3) =     -5.96160  eV     1   --> A              
     e(  4 -  4) =     -2.16233  eV     1   --> A              
     e(  5 -  5) =     -1.41801  eV     1   --> A              
     e(  6 -  6) =      2.39321  eV     1   --> A              
     e(  7 -  7) =      2.74702  eV     1   --> A              
     e(  8 -  8) =      4.53979  eV     1   --> A              

 **************************************************************************

 **************************************************************************

                    xk=(   0.36664,   0.51957,   0.00000  )

     Band symmetry, C_1 (1)     point group:

     e(  1 -  1) =     -9.88426  eV     1   --> A              
     e(  2 -  2) =     -9.17692  eV     1   --> A              
     e(  3 -  3) =     -6.00586  eV     1   --> A              
     e(  4 -  4) =     -2.11239  eV     1   --> A              
     e(  5 -  5) =     -1.45825  eV     1   --> A              
     e(  6 -  6) =      2.34948  eV     1   --> A              
     e(  7 -  7) =      2.95877  eV     1   --> A              
     e(  8 -  8) =      4.55720  eV     1   --> A              

 **************************************************************************

 **************************************************************************

                    xk=(   0.36108,   0.52919,   0.00000  )

     Band symmetry, C_1 (1)     point group:

     e(  1 -  1) =     -9.82878  eV     1   --> A              
     e(  2 -  2) =     -9.22388  eV     1   --> A              
     e(  3 -  3) =     -6.04317  eV     1   --> A              
     e(  4 -  4) =     -2.06055  eV     1   --> A              
     e(  5 -  5) =     -1.50209  eV     1   --> A              
     e(  6 -  6) =      2.31251  eV     1   --> A              
     e(  7 -  7) =      3.16994  eV     1   --> A              
     e(  8 -  8) =      4.56550  eV     1   --> A              

 **************************************************************************

 **************************************************************************

                    xk=(   0.35553,   0.53881,   0.00000  )

     Band symmetry, C_1 (1)     point group:

     e(  1 -  1) =     -9.77108  eV     1   --> A              
     e(  2 -  2) =     -9.27499  eV     1   --> A              
     e(  3 -  3) =     -6.07347  eV     1   --> A              
     e(  4 -  4) =     -2.00683  eV     1   --> A              
     e(  5 -  5) =     -1.54953  eV     1   --> A              
     e(  6 -  6) =      2.28237  eV     1   --> A              
     e(  7 -  7) =      3.37851  eV     1   --> A              
     e(  8 -  8) =      4.51098  eV     1   --> A              

 **************************************************************************

 **************************************************************************

                    xk=(   0.34997,   0.54843,   0.00000  )

     Band symmetry, C_1 (1)     point group:

     e(  1 -  1) =     -9.71117  eV     1   --> A              
     e(  2 -  2) =     -9.33013  eV     1   --> A              
     e(  3 -  3) =     -6.09679  eV     1   --> A              
     e(  4 -  4) =     -1.95124  eV     1   --> A              
     e(  5 -  5) =     -1.60047  eV     1   --> A              
     e(  6 -  6) =      2.25908  eV     1   --> A              
     e(  7 -  7) =      3.58049  eV     1   --> A              
     e(  8 -  8) =      4.44023  eV     1   --> A              

 **************************************************************************

 **************************************************************************

                    xk=(   0.34441,   0.55805,   0.00000  )

     Band symmetry, C_1 (1)     point group:

     e(  1 -  1) =     -9.64905  eV     1   --> A              
     e(  2 -  2) =     -9.38914  eV     1   --> A              
     e(  3 -  3) =     -6.11322  eV     1   --> A              
     e(  4 -  4) =     -1.89378  eV     1   --> A              
     e(  5 -  5) =     -1.65480  eV     1   --> A              
     e(  6 -  6) =      2.24261  eV     1   --> A              
     e(  7 -  7) =      3.76672  eV     1   --> A              
     e(  8 -  8) =      4.37475  eV     1   --> A              

 **************************************************************************

 **************************************************************************

                    xk=(   0.33886,   0.56767,   0.00000  )

     Band symmetry, C_1 (1)     point group:

     e(  1 -  1) =     -9.58472  eV     1   --> A              
     e(  2 -  2) =     -9.45178  eV     1   --> A              
     e(  3 -  3) =     -6.12292  eV     1   --> A              
     e(  4 -  4) =     -1.83447  eV     1   --> A              
     e(  5 -  5) =     -1.71236  eV     1   --> A              
     e(  6 -  6) =      2.23284  eV     1   --> A              
     e(  7 -  7) =      3.91216  eV     1   --> A              
     e(  8 -  8) =      4.33734  eV     1   --> A              

 **************************************************************************

 **************************************************************************

                    xk=(   0.33330,   0.57729,   0.00000  )

     Band symmetry, C_1 (1)     point group:

     e(  1 -  1) =     -9.51845  eV     1   --> A              
     e(  2 -  2) =     -9.51754  eV     1   --> A              
     e(  3 -  3) =     -6.12611  eV     1   --> A              
     e(  4 -  4) =     -1.77371  eV     1   --> A              
     e(  5 -  5) =     -1.77259  eV     1   --> A              
     e(  6 -  6) =      2.22961  eV     1   --> A              
     e(  7 -  7) =      3.96676  eV     1   --> A              
     e(  8 -  8) =      4.37170  eV     1   --> A              

 **************************************************************************

 **************************************************************************

                    xk=(   0.32219,   0.55805,   0.00539  )

     Band symmetry, C_1 (1)     point group:

     e(  1 -  1) =     -9.65941  eV     1   --> A              
     e(  2 -  2) =     -9.37797  eV     1   --> A              
     e(  3 -  3) =     -6.11389  eV     1   --> A              
     e(  4 -  4) =     -1.90295  eV     1   --> A              
     e(  5 -  5) =     -1.64507  eV     1   --> A              
     e(  6 -  6) =      2.24208  eV     1   --> A              
     e(  7 -  7) =      3.85432  eV     1   --> A              
     e(  8 -  8) =      4.20396  eV     1   --> A              

 **************************************************************************

 **************************************************************************

                    xk=(   0.31108,   0.53881,   0.01078  )

     Band symmetry, C_1 (1)     point group:

     e(  1 -  1) =     -9.81015  eV     1   --> A              
     e(  2 -  2) =     -9.22966  eV     1   --> A              
     e(  3 -  3) =     -6.07896  eV     1   --> A              
     e(  4 -  4) =     -2.04160  eV     1   --> A              
     e(  5 -  5) =     -1.51036  eV     1   --> A              
     e(  6 -  6) =      2.27794  eV     1   --> A              
     e(  7 -  7) =      3.67022  eV     1   --> A              
     e(  8 -  8) =      4.01815  eV     1   --> A              

 **************************************************************************

 **************************************************************************

                    xk=(   0.29997,   0.51956,   0.01617  )

     Band symmetry, C_1 (1)     point group:

     e(  1 -  1) =     -9.96804  eV     1   --> A              
     e(  2 -  2) =     -9.07275  eV     1   --> A              
     e(  3 -  3) =     -6.02377  eV     1   --> A              
     e(  4 -  4) =     -2.18735  eV     1   --> A              
     e(  5 -  5) =     -1.36892  eV     1   --> A              
     e(  6 -  6) =      2.33479  eV     1   --> A              
     e(  7 -  7) =      3.47509  eV     1   --> A              
     e(  8 -  8) =      3.82642  eV     1   --> A              

 **************************************************************************

 **************************************************************************

                    xk=(   0.28886,   0.50032,   0.02156  )

     Band symmetry, C_1 (1)     point group:

     e(  1 -  1) =    -10.13066  eV     1   --> A              
     e(  2 -  2) =     -8.90730  eV     1   --> A              
     e(  3 -  3) =     -5.95069  eV     1   --> A              
     e(  4 -  4) =     -2.33811  eV     1   --> A              
     e(  5 -  5) =     -1.22111  eV     1   --> A              
     e(  6 -  6) =      2.40971  eV     1   --> A              
     e(  7 -  7) =      3.27995  eV     1   --> A              
     e(  8 -  8) =      3.63547  eV     1   --> A              

 **************************************************************************

 **************************************************************************

                    xk=(   0.27775,   0.48108,   0.02694  )

     Band symmetry, C_1 (1)     point group:

     e(  1 -  1) =    -10.29583  eV     1   --> A              
     e(  2 -  2) =     -8.73342  eV     1   --> A              
     e(  3 -  3) =     -5.86192  eV     1   --> A              
     e(  4 -  4) =     -2.49191  eV     1   --> A              
     e(  5 -  5) =     -1.06737  eV     1   --> A              
     e(  6 -  6) =      2.49880  eV     1   --> A              
     e(  7 -  7) =      3.08872  eV     1   --> A              
     e(  8 -  8) =      3.45031  eV     1   --> A              

 **************************************************************************

 **************************************************************************

                    xk=(   0.26664,   0.46183,   0.03233  )

     Band symmetry, C_1 (1)     point group:

     e(  1 -  1) =    -10.46171  eV     1   --> A              
     e(  2 -  2) =     -8.55121  eV     1   --> A              
     e(  3 -  3) =     -5.75943  eV     1   --> A              
     e(  4 -  4) =     -2.64699  eV     1   --> A              
     e(  5 -  5) =     -0.90826  eV     1   --> A              
     e(  6 -  6) =      2.59494  eV     1   --> A              
     e(  7 -  7) =      2.90337  eV     1   --> A              
     e(  8 -  8) =      3.27778  eV     1   --> A              

 **************************************************************************

 **************************************************************************

                    xk=(   0.25553,   0.44259,   0.03772  )

     Band symmetry, C_1 (1)     point group:

     e(  1 -  1) =    -10.62672  eV     1   --> A              
     e(  2 -  2) =     -8.36079  eV     1   --> A              
     e(  3 -  3) =     -5.64498  eV     1   --> A              
     e(  4 -  4) =     -2.80181  eV     1   --> A              
     e(  5 -  5) =     -0.74453  eV     1   --> A              
     e(  6 -  6) =      2.67885  eV     1   --> A              
     e(  7 -  7) =      2.72516  eV     1   --> A              
     e(  8 -  8) =      3.13631  eV     1   --> A              

 **************************************************************************

 **************************************************************************

                    xk=(   0.24442,   0.42335,   0.04311  )

     Band symmetry, C_1 (1)     point group:

     e(  1 -  1) =    -10.78956  eV     1   --> A              
     e(  2 -  2) =     -8.16229  eV     1   --> A              
     e(  3 -  3) =     -5.52017  eV     1   --> A              
     e(  4 -  4) =     -2.95501  eV     1   --> A              
     e(  5 -  5) =     -0.57710  eV     1   --> A              
     e(  6 -  6) =      2.55491  eV     1   --> A              
     e(  7 -  7) =      2.69299  eV     1   --> A              
     e(  8 -  8) =      3.08206  eV     1   --> A              

 **************************************************************************

 **************************************************************************

                    xk=(   0.23331,   0.40410,   0.04850  )

     Band symmetry, C_1 (1)     point group:

     e(  1 -  1) =    -10.94914  eV     1   --> A              
     e(  2 -  2) =     -7.95587  eV     1   --> A              
     e(  3 -  3) =     -5.38642  eV     1   --> A              
     e(  4 -  4) =     -3.10547  eV     1   --> A              
     e(  5 -  5) =     -0.40719  eV     1   --> A              
     e(  6 -  6) =      2.39324  eV     1   --> A              
     e(  7 -  7) =      2.60021  eV     1   --> A              
     e(  8 -  8) =      3.15005  eV     1   --> A              

 **************************************************************************

 **************************************************************************

                    xk=(   0.22220,   0.38486,   0.05389  )

     Band symmetry, C_1 (1)     point group:

     e(  1 -  1) =    -11.10456  eV     1   --> A              
     e(  2 -  2) =     -7.74174  eV     1   --> A              
     e(  3 -  3) =     -5.24508  eV     1   --> A              
     e(  4 -  4) =     -3.25217  eV     1   --> A              
     e(  5 -  5) =     -0.23637  eV     1   --> A              
     e(  6 -  6) =      2.24067  eV     1   --> A              
     e(  7 -  7) =      2.46177  eV     1   --> A              
     e(  8 -  8) =      3.20833  eV     1   --> A              

 **************************************************************************

 **************************************************************************

                    xk=(   0.21109,   0.36562,   0.05928  )

     Band symmetry, C_1 (1)     point group:

     e(  1 -  1) =    -11.25510  eV     1   --> A              
     e(  2 -  2) =     -7.52012  eV     1   --> A              
     e(  3 -  3) =     -5.09743  eV     1   --> A              
     e(  4 -  4) =     -3.39426  eV     1   --> A              
     e(  5 -  5) =     -0.06673  eV     1   --> A              
     e(  6 -  6) =      2.09760  eV     1   --> A              
     e(  7 -  7) =      2.31385  eV     1   --> A              
     e(  8 -  8) =      3.07622  eV     1   --> A              

 **************************************************************************

 **************************************************************************

                    xk=(   0.19998,   0.34638,   0.06467  )

     Band symmetry, C_1 (1)     point group:

     e(  1 -  1) =    -11.40012  eV     1   --> A              
     e(  2 -  2) =     -7.29129  eV     1   --> A              
     e(  3 -  3) =     -4.94471  eV     1   --> A              
     e(  4 -  4) =     -3.53099  eV     1   --> A              
     e(  5 -  5) =      0.09908  eV     1   --> A              
     e(  6 -  6) =      1.96433  eV     1   --> A              
     e(  7 -  7) =      2.16664  eV     1   --> A              
     e(  8 -  8) =      2.96102  eV     1   --> A              

 **************************************************************************

 **************************************************************************

                    xk=(   0.18887,   0.32713,   0.07006  )

     Band symmetry, C_1 (1)     point group:

     e(  1 -  1) =    -11.53914  eV     1   --> A              
     e(  2 -  2) =     -7.05562  eV     1   --> A              
     e(  3 -  3) =     -4.78817  eV     1   --> A              
     e(  4 -  4) =     -3.66164  eV     1   --> A              
     e(  5 -  5) =      0.25764  eV     1   --> A              
     e(  6 -  6) =      1.84115  eV     1   --> A              
     e(  7 -  7) =      2.02354  eV     1   --> A              
     e(  8 -  8) =      2.86729  eV     1   --> A              

 **************************************************************************

 **************************************************************************

                    xk=(   0.17776,   0.30789,   0.07544  )

     Band symmetry, C_1 (1)     point group:

     e(  1 -  1) =    -11.67171  eV     1   --> A              
     e(  2 -  2) =     -6.81357  eV     1   --> A              
     e(  3 -  3) =     -4.62912  eV     1   --> A              
     e(  4 -  4) =     -3.78556  eV     1   --> A              
     e(  5 -  5) =      0.40482  eV     1   --> A              
     e(  6 -  6) =      1.72826  eV     1   --> A              
     e(  7 -  7) =      1.88586  eV     1   --> A              
     e(  8 -  8) =      2.79878  eV     1   --> A              

 **************************************************************************

 **************************************************************************

                    xk=(   0.16665,   0.28865,   0.08083  )

     Band symmetry, C_1 (1)     point group:

     e(  1 -  1) =    -11.79749  eV     1   --> A              
     e(  2 -  2) =     -6.56578  eV     1   --> A              
     e(  3 -  3) =     -4.46887  eV     1   --> A              
     e(  4 -  4) =     -3.90202  eV     1   --> A              
     e(  5 -  5) =      0.53597  eV     1   --> A              
     e(  6 -  6) =      1.62574  eV     1   --> A              
     e(  7 -  7) =      1.75420  eV     1   --> A              
     e(  8 -  8) =      2.75934  eV     1   --> A              

 **************************************************************************

 **************************************************************************

                    xk=(   0.15554,   0.26940,   0.08622  )

     Band symmetry, C_1 (1)     point group:

     e(  1 -  1) =    -11.91616  eV     1   --> A              
     e(  2 -  2) =     -6.31316  eV     1   --> A              
     e(  3 -  3) =     -4.30887  eV     1   --> A              
     e(  4 -  4) =     -4.01018  eV     1   --> A              
     e(  5 -  5) =      0.64667  eV     1   --> A              
     e(  6 -  6) =      1.53356  eV     1   --> A              
     e(  7 -  7) =      1.62876  eV     1   --> A              
     e(  8 -  8) =      2.75185  eV     1   --> A              

 **************************************************************************

 **************************************************************************

                    xk=(   0.14443,   0.25016,   0.09161  )

     Band symmetry, C_1 (1)     point group:

     e(  1 -  1) =    -12.02749  eV     1   --> A              
     e(  2 -  2) =     -6.05703  eV     1   --> A              
     e(  3 -  3) =     -4.15056  eV     1   --> A              
     e(  4 -  4) =     -4.10886  eV     1   --> A              
     e(  5 -  5) =      0.73385  eV     1   --> A              
     e(  6 -  6) =      1.45179  eV     1   --> A              
     e(  7 -  7) =      1.50948  eV     1   --> A              
     e(  8 -  8) =      2.77616  eV     1   --> A              

 **************************************************************************

 **************************************************************************

                    xk=(   0.13332,   0.23092,   0.09700  )

     Band symmetry, C_1 (1)     point group:

     e(  1 -  1) =    -12.13124  eV     1   --> A              
     e(  2 -  2) =     -5.79963  eV     1   --> A              
     e(  3 -  3) =     -4.19622  eV     1   --> A              
     e(  4 -  4) =     -3.99554  eV     1   --> A              
     e(  5 -  5) =      0.79676  eV     1   --> A              
     e(  6 -  6) =      1.38049  eV     1   --> A              
     e(  7 -  7) =      1.39609  eV     1   --> A              
     e(  8 -  8) =      2.82480  eV     1   --> A              

 **************************************************************************

 **************************************************************************

                    xk=(   0.12221,   0.21167,   0.10239  )

     Band symmetry, C_1 (1)     point group:

     e(  1 -  1) =    -12.22724  eV     1   --> A              
     e(  2 -  2) =     -5.54494  eV     1   --> A              
     e(  3 -  3) =     -4.26881  eV     1   --> A              
     e(  4 -  4) =     -3.84543  eV     1   --> A              
     e(  5 -  5) =      0.83723  eV     1   --> A              
     e(  6 -  6) =      1.28800  eV     1   --> A              
     e(  7 -  7) =      1.32011  eV     1   --> A              
     e(  8 -  8) =      2.87094  eV     1   --> A              

 **************************************************************************

 **************************************************************************

                    xk=(   0.11110,   0.19243,   0.10778  )

     Band symmetry, C_1 (1)     point group:

     e(  1 -  1) =    -12.31533  eV     1   --> A              
     e(  2 -  2) =     -5.30107  eV     1   --> A              
     e(  3 -  3) =     -4.31933  eV     1   --> A              
     e(  4 -  4) =     -3.70188  eV     1   --> A              
     e(  5 -  5) =      0.85869  eV     1   --> A              
     e(  6 -  6) =      1.18428  eV     1   --> A              
     e(  7 -  7) =      1.27138  eV     1   --> A              
     e(  8 -  8) =      2.86050  eV     1   --> A              

 **************************************************************************

 **************************************************************************

                    xk=(   0.09999,   0.17319,   0.11317  )

     Band symmetry, C_1 (1)     point group:

     e(  1 -  1) =    -12.39537  eV     1   --> A              
     e(  2 -  2) =     -5.08580  eV     1   --> A              
     e(  3 -  3) =     -4.33118  eV     1   --> A              
     e(  4 -  4) =     -3.56658  eV     1   --> A              
     e(  5 -  5) =      0.86496  eV     1   --> A              
     e(  6 -  6) =      1.08334  eV     1   --> A              
     e(  7 -  7) =      1.23529  eV     1   --> A              
     e(  8 -  8) =      2.79427  eV     1   --> A              

 **************************************************************************

 **************************************************************************

                    xk=(   0.08888,   0.15394,   0.11856  )

     Band symmetry, C_1 (1)     point group:

     e(  1 -  1) =    -12.46726  eV     1   --> A              
     e(  2 -  2) =     -4.93196  eV     1   --> A              
     e(  3 -  3) =     -4.27317  eV     1   --> A              
     e(  4 -  4) =     -3.44113  eV     1   --> A              
     e(  5 -  5) =      0.85963  eV     1   --> A              
     e(  6 -  6) =      0.98274  eV     1   --> A              
     e(  7 -  7) =      1.21247  eV     1   --> A              
     e(  8 -  8) =      2.66172  eV     1   --> A              

 **************************************************************************

 **************************************************************************

                    xk=(   0.07777,   0.13470,   0.12394  )

     Band symmetry, C_1 (1)     point group:

     e(  1 -  1) =    -12.53089  eV     1   --> A              
     e(  2 -  2) =     -4.86121  eV     1   --> A              
     e(  3 -  3) =     -4.12597  eV     1   --> A              
     e(  4 -  4) =     -3.32707  eV     1   --> A              
     e(  5 -  5) =      0.84618  eV     1   --> A              
     e(  6 -  6) =      0.87869  eV     1   --> A              
     e(  7 -  7) =      1.20242  eV     1   --> A              
     e(  8 -  8) =      2.33483  eV     1   --> A              

 **************************************************************************

 **************************************************************************

                    xk=(   0.06666,   0.11546,   0.12933  )

     Band symmetry, C_1 (1)     point group:

     e(  1 -  1) =    -12.58619  eV     1   --> A              
     e(  2 -  2) =     -4.84814  eV     1   --> A              
     e(  3 -  3) =     -3.91841  eV     1   --> A              
     e(  4 -  4) =     -3.22577  eV     1   --> A              
     e(  5 -  5) =      0.76593  eV     1   --> A              
     e(  6 -  6) =      0.82806  eV     1   --> A              
     e(  7 -  7) =      1.20325  eV     1   --> A              
     e(  8 -  8) =      2.03424  eV     1   --> A              

 **************************************************************************

 **************************************************************************

                    xk=(   0.05555,   0.09622,   0.13472  )

     Band symmetry, C_1 (1)     point group:

     e(  1 -  1) =    -12.63308  eV     1   --> A              
     e(  2 -  2) =     -4.85915  eV     1   --> A              
     e(  3 -  3) =     -3.68903  eV     1   --> A              
     e(  4 -  4) =     -3.13837  eV     1   --> A              
     e(  5 -  5) =      0.63892  eV     1   --> A              
     e(  6 -  6) =      0.80838  eV     1   --> A              
     e(  7 -  7) =      1.21214  eV     1   --> A              
     e(  8 -  8) =      1.77775  eV     1   --> A              

 **************************************************************************

 **************************************************************************

                    xk=(   0.04444,   0.07697,   0.14011  )

     Band symmetry, C_1 (1)     point group:

     e(  1 -  1) =    -12.67153  eV     1   --> A              
     e(  2 -  2) =     -4.87709  eV     1   --> A              
     e(  3 -  3) =     -3.46218  eV     1   --> A              
     e(  4 -  4) =     -3.06579  eV     1   --> A              
     e(  5 -  5) =      0.49607  eV     1   --> A              
     e(  6 -  6) =      0.78963  eV     1   --> A              
     e(  7 -  7) =      1.22581  eV     1   --> A              
     e(  8 -  8) =      1.57555  eV     1   --> A              

 **************************************************************************

 **************************************************************************

                    xk=(   0.03333,   0.05773,   0.14550  )

     Band symmetry, C_1 (1)     point group:

     e(  1 -  1) =    -12.70147  eV     1   --> A              
     e(  2 -  2) =     -4.89468  eV     1   --> A              
     e(  3 -  3) =     -3.25559  eV     1   --> A              
     e(  4 -  4) =     -3.00874  eV     1   --> A              
     e(  5 -  5) =      0.34603  eV     1   --> A              
     e(  6 -  6) =      0.77358  eV     1   --> A              
     e(  7 -  7) =      1.24089  eV     1   --> A              
     e(  8 -  8) =      1.43015  eV     1   --> A              

 **************************************************************************

 **************************************************************************

                    xk=(   0.02222,   0.03849,   0.15089  )

     Band symmetry, C_1 (1)     point group:

     e(  1 -  1) =    -12.72288  eV     1   --> A              
     e(  2 -  2) =     -4.90866  eV     1   --> A              
     e(  3 -  3) =     -3.08677  eV     1   --> A              
     e(  4 -  4) =     -2.96770  eV     1   --> A              
     e(  5 -  5) =      0.20933  eV     1   --> A              
     e(  6 -  6) =      0.76141  eV     1   --> A              
     e(  7 -  7) =      1.25431  eV     1   --> A              
     e(  8 -  8) =      1.33571  eV     1   --> A              

 **************************************************************************

 **************************************************************************

                    xk=(   0.01111,   0.01924,   0.15628  )

     Band symmetry, C_1 (1)     point group:

     e(  1 -  1) =    -12.73573  eV     1   --> A              
     e(  2 -  2) =     -4.91752  eV     1   --> A              
     e(  3 -  3) =     -2.97441  eV     1   --> A              
     e(  4 -  4) =     -2.94297  eV     1   --> A              
     e(  5 -  5) =      0.11221  eV     1   --> A              
     e(  6 -  6) =      0.75383  eV     1   --> A              
     e(  7 -  7) =      1.26349  eV     1   --> A              
     e(  8 -  8) =      1.28342  eV     1   --> A              

 **************************************************************************

 **************************************************************************

                    xk=(   0.00000,   0.00000,   0.16167  )

     point group C_3v (3m)  
     there are  3 classes
     the character table:

       E     2C3   3s_v 
A_1    1.00  1.00  1.00
A_2    1.00  1.00 -1.00
E      2.00 -1.00  0.00

     the symmetry operations in each class and the name of the first element:

     E        1
                                                                 
     2C3      2    3
                                                                 
     3s_v     4    5    6
                                                                 

     Band symmetry, C_3v (3m)   point group:

     e(  1 -  1) =    -12.74002  eV     1   --> A_1  L_1       
     e(  2 -  2) =     -4.92053  eV     1   --> A_1  L_1       
     e(  3 -  4) =     -2.93471  eV     2   --> E    L_3       
     e(  5 -  5) =      0.07688  eV     1   --> A_1  L_1       
     e(  6 -  6) =      0.75127  eV     1   --> A_1  L_1       
     e(  7 -  8) =      1.26675  eV     2   --> E    L_3       

 **************************************************************************
 
     BANDS        :      7.66s CPU      8.85s WALL

 
   This run was terminated on:  15:30: 7  30Mar2021            

=------------------------------------------------------------------------------=
   JOB DONE.
=------------------------------------------------------------------------------=
