
     Program PWSCF v.6.6 starts on 18Mar2021 at 18:13: 0 

     This program is part of the open-source Quantum ESPRESSO suite
     for quantum simulation of materials; please cite
         "P. Giannozzi et al., J. Phys.:Condens. Matter 21 395502 (2009);
         "P. Giannozzi et al., J. Phys.:Condens. Matter 29 465901 (2017);
          URL http://www.quantum-espresso.org", 
     in publications or presentations arising from this work. More details at
     http://www.quantum-espresso.org/quote

     Parallel version (MPI), running on     1 processors

     MPI processes distributed on     1 nodes
     Fft bands division:     nmany     =       1
     Waiting for input...
     Reading input from standard input
Warning: card &IONS ignored
Warning: card   ION_DYNAMICS='BFGS', ignored
Warning: card / ignored
Warning: card &CELL ignored
Warning: card   CELL_DYNAMICS='BFGS', ignored
Warning: card   CELL_DOFREE='ALL', ignored
Warning: card / ignored

     Current dimensions of program PWSCF are:
     Max number of different atomic species (ntypx) = 10
     Max number of k-points (npk) =  40000
     Max angular momentum in pseudopotentials (lmaxx) =  3

     Atomic positions and unit cell read from directory:
     /home/jesus/Documentos/Nanociencia_DFT/test.save/
     Atomic positions from file used, from input discarded
 

     Subspace diagonalization in iterative solution of the eigenvalue problem:
     a serial algorithm will be used

 
     G-vector sticks info
     --------------------
     sticks:   dense  smooth     PW     G-vecs:    dense   smooth      PW
     Sum         889     439    139                66219    23461    3925
 


     bravais-lattice index     =            4
     lattice parameter (alat)  =       7.3321  a.u.
     unit-cell volume          =    1055.7764 (a.u.)^3
     number of atoms/cell      =            2
     number of atomic types    =            1
     number of electrons       =         8.00
     number of Kohn-Sham states=            8
     kinetic-energy cutoff     =      30.0000  Ry
     charge density cutoff     =     240.0000  Ry
     Exchange-correlation= PBE
                           (   1   4   3   4   0   0   0)

     celldm(1)=   7.332137  celldm(2)=   0.000000  celldm(3)=   3.092784
     celldm(4)=   0.000000  celldm(5)=   0.000000  celldm(6)=   0.000000

     crystal axes: (cart. coord. in units of alat)
               a(1) = (   1.000000   0.000000   0.000000 )  
               a(2) = (  -0.500000   0.866025   0.000000 )  
               a(3) = (   0.000000   0.000000   3.092784 )  

     reciprocal axes: (cart. coord. in units 2 pi/alat)
               b(1) = (  1.000000  0.577350  0.000000 )  
               b(2) = (  0.000000  1.154701  0.000000 )  
               b(3) = (  0.000000  0.000000  0.323333 )  


     PseudoPot. # 1 for Si read from file:
     /home/jesus/Documentos/Nanociencia_DFT/pseudopotenciales/Si.pbe-n-rrkjus_psl.1.0.0.UPF
     MD5 check sum: fa25574f73a70a4139f2adfbefec430c
     Pseudo is Ultrasoft + core correction, Zval =  4.0
     Generated using "atomic" code by A. Dal Corso v.6.3
     Using radial grid of 1141 points,  6 beta functions with: 
                l(1) =   0
                l(2) =   0
                l(3) =   1
                l(4) =   1
                l(5) =   2
                l(6) =   2
     Q(r) pseudized with 0 coefficients 


     atomic species   valence    mass     pseudopotential
        Si             4.00    28.08550     Si( 1.00)

      6 Sym. Ops. (no inversion) found



   Cartesian axes

     site n.     atom                  positions (alat units)
         1           Si  tau(   1) = (  -0.0000000   0.5773503   1.5209498  )
         2           Si  tau(   2) = (   0.5000000   0.2886751   1.6491100  )

     number of k points=    91  Methfessel-Paxton smearing, width (Ry)=  0.0100
                       cart. coord. in units 2pi/alat
        k(    1) = (   0.0000000   0.0000000   0.0000000), wk =   0.0219780
        k(    2) = (   0.0166667   0.0096225   0.0000000), wk =   0.0219780
        k(    3) = (   0.0333333   0.0192450   0.0000000), wk =   0.0219780
        k(    4) = (   0.0500000   0.0288675   0.0000000), wk =   0.0219780
        k(    5) = (   0.0666667   0.0384900   0.0000000), wk =   0.0219780
        k(    6) = (   0.0833333   0.0481125   0.0000000), wk =   0.0219780
        k(    7) = (   0.1000000   0.0577350   0.0000000), wk =   0.0219780
        k(    8) = (   0.1166667   0.0673575   0.0000000), wk =   0.0219780
        k(    9) = (   0.1333333   0.0769800   0.0000000), wk =   0.0219780
        k(   10) = (   0.1500000   0.0866025   0.0000000), wk =   0.0219780
        k(   11) = (   0.1666667   0.0962250   0.0000000), wk =   0.0219780
        k(   12) = (   0.1833333   0.1058475   0.0000000), wk =   0.0219780
        k(   13) = (   0.2000000   0.1154701   0.0000000), wk =   0.0219780
        k(   14) = (   0.2166667   0.1250926   0.0000000), wk =   0.0219780
        k(   15) = (   0.2333333   0.1347151   0.0000000), wk =   0.0219780
        k(   16) = (   0.2500000   0.1443376   0.0000000), wk =   0.0219780
        k(   17) = (   0.2666667   0.1539601   0.0000000), wk =   0.0219780
        k(   18) = (   0.2833333   0.1635826   0.0000000), wk =   0.0219780
        k(   19) = (   0.3000000   0.1732051   0.0000000), wk =   0.0219780
        k(   20) = (   0.3166667   0.1828276   0.0000000), wk =   0.0219780
        k(   21) = (   0.3333333   0.1924501   0.0000000), wk =   0.0219780
        k(   22) = (   0.3500000   0.2020726   0.0000000), wk =   0.0219780
        k(   23) = (   0.3666667   0.2116951   0.0000000), wk =   0.0219780
        k(   24) = (   0.3833333   0.2213176   0.0000000), wk =   0.0219780
        k(   25) = (   0.4000000   0.2309401   0.0000000), wk =   0.0219780
        k(   26) = (   0.4166667   0.2405626   0.0000000), wk =   0.0219780
        k(   27) = (   0.4333333   0.2501851   0.0000000), wk =   0.0219780
        k(   28) = (   0.4500000   0.2598076   0.0000000), wk =   0.0219780
        k(   29) = (   0.4666667   0.2694301   0.0000000), wk =   0.0219780
        k(   30) = (   0.4833333   0.2790526   0.0000000), wk =   0.0219780
        k(   31) = (   0.5000000   0.2886751   0.0000000), wk =   0.0219780
        k(   32) = (   0.4944433   0.2982957   0.0000000), wk =   0.0219780
        k(   33) = (   0.4888867   0.3079163   0.0000000), wk =   0.0219780
        k(   34) = (   0.4833300   0.3175369   0.0000000), wk =   0.0219780
        k(   35) = (   0.4777733   0.3271575   0.0000000), wk =   0.0219780
        k(   36) = (   0.4722167   0.3367780   0.0000000), wk =   0.0219780
        k(   37) = (   0.4666600   0.3463986   0.0000000), wk =   0.0219780
        k(   38) = (   0.4611033   0.3560192   0.0000000), wk =   0.0219780
        k(   39) = (   0.4555467   0.3656398   0.0000000), wk =   0.0219780
        k(   40) = (   0.4499900   0.3752604   0.0000000), wk =   0.0219780
        k(   41) = (   0.4444333   0.3848809   0.0000000), wk =   0.0219780
        k(   42) = (   0.4388767   0.3945015   0.0000000), wk =   0.0219780
        k(   43) = (   0.4333200   0.4041221   0.0000000), wk =   0.0219780
        k(   44) = (   0.4277633   0.4137427   0.0000000), wk =   0.0219780
        k(   45) = (   0.4222067   0.4233633   0.0000000), wk =   0.0219780
        k(   46) = (   0.4166500   0.4329838   0.0000000), wk =   0.0219780
        k(   47) = (   0.4110933   0.4426044   0.0000000), wk =   0.0219780
        k(   48) = (   0.4055367   0.4522250   0.0000000), wk =   0.0219780
        k(   49) = (   0.3999800   0.4618456   0.0000000), wk =   0.0219780
        k(   50) = (   0.3944233   0.4714662   0.0000000), wk =   0.0219780
        k(   51) = (   0.3888667   0.4810867   0.0000000), wk =   0.0219780
        k(   52) = (   0.3833100   0.4907073   0.0000000), wk =   0.0219780
        k(   53) = (   0.3777533   0.5003279   0.0000000), wk =   0.0219780
        k(   54) = (   0.3721967   0.5099485   0.0000000), wk =   0.0219780
        k(   55) = (   0.3666400   0.5195691   0.0000000), wk =   0.0219780
        k(   56) = (   0.3610833   0.5291896   0.0000000), wk =   0.0219780
        k(   57) = (   0.3555267   0.5388102   0.0000000), wk =   0.0219780
        k(   58) = (   0.3499700   0.5484308   0.0000000), wk =   0.0219780
        k(   59) = (   0.3444133   0.5580514   0.0000000), wk =   0.0219780
        k(   60) = (   0.3388567   0.5676720   0.0000000), wk =   0.0219780
        k(   61) = (   0.3333000   0.5772925   0.0000000), wk =   0.0219780
        k(   62) = (   0.3221900   0.5580494   0.0053889), wk =   0.0219780
        k(   63) = (   0.3110800   0.5388064   0.0107778), wk =   0.0219780
        k(   64) = (   0.2999700   0.5195633   0.0161667), wk =   0.0219780
        k(   65) = (   0.2888600   0.5003202   0.0215556), wk =   0.0219780
        k(   66) = (   0.2777500   0.4810771   0.0269444), wk =   0.0219780
        k(   67) = (   0.2666400   0.4618340   0.0323333), wk =   0.0219780
        k(   68) = (   0.2555300   0.4425909   0.0377222), wk =   0.0219780
        k(   69) = (   0.2444200   0.4233479   0.0431111), wk =   0.0219780
        k(   70) = (   0.2333100   0.4041048   0.0485000), wk =   0.0219780
        k(   71) = (   0.2222000   0.3848617   0.0538889), wk =   0.0219780
        k(   72) = (   0.2110900   0.3656186   0.0592778), wk =   0.0219780
        k(   73) = (   0.1999800   0.3463755   0.0646667), wk =   0.0219780
        k(   74) = (   0.1888700   0.3271324   0.0700556), wk =   0.0219780
        k(   75) = (   0.1777600   0.3078894   0.0754444), wk =   0.0219780
        k(   76) = (   0.1666500   0.2886463   0.0808333), wk =   0.0219780
        k(   77) = (   0.1555400   0.2694032   0.0862222), wk =   0.0219780
        k(   78) = (   0.1444300   0.2501601   0.0916111), wk =   0.0219780
        k(   79) = (   0.1333200   0.2309170   0.0970000), wk =   0.0219780
        k(   80) = (   0.1222100   0.2116739   0.1023889), wk =   0.0219780
        k(   81) = (   0.1111000   0.1924308   0.1077778), wk =   0.0219780
        k(   82) = (   0.0999900   0.1731878   0.1131667), wk =   0.0219780
        k(   83) = (   0.0888800   0.1539447   0.1185556), wk =   0.0219780
        k(   84) = (   0.0777700   0.1347016   0.1239444), wk =   0.0219780
        k(   85) = (   0.0666600   0.1154585   0.1293333), wk =   0.0219780
        k(   86) = (   0.0555500   0.0962154   0.1347222), wk =   0.0219780
        k(   87) = (   0.0444400   0.0769723   0.1401111), wk =   0.0219780
        k(   88) = (   0.0333300   0.0577293   0.1455000), wk =   0.0219780
        k(   89) = (   0.0222200   0.0384862   0.1508889), wk =   0.0219780
        k(   90) = (   0.0111100   0.0192431   0.1562778), wk =   0.0219780
        k(   91) = (   0.0000000   0.0000000   0.1616667), wk =   0.0219780

     Dense  grid:    66219 G-vectors     FFT dimensions: (  40,  40, 120)

     Smooth grid:    23461 G-vectors     FFT dimensions: (  25,  25,  80)

     Estimated max dynamical RAM per process >     214.92 MB

     The potential is recalculated from file :
     /home/jesus/Documentos/Nanociencia_DFT/test.save/charge-density


     negative rho (up, down):  1.804E-06 0.000E+00
     Starting wfcs are    8 randomized atomic wfcs

     Band Structure Calculation
     Davidson diagonalization with overlap
     c_bands:  1 eigenvalues not converged
     c_bands:  1 eigenvalues not converged

     ethr =  1.25E-08,  avg # of iterations = 46.0

     total cpu time spent up to now is       43.6 secs

     End of band structure calculation

          k = 0.0000 0.0000 0.0000 (  2919 PWs)   bands (ev):

   -12.6932  -4.8938  -2.8775  -2.8775   0.1219   0.7180   1.2952   1.2952

          k = 0.0167 0.0096 0.0000 (  2931 PWs)   bands (ev):

   -12.6900  -4.8915  -2.9076  -2.8838   0.1486   0.7202   1.2930   1.3076

          k = 0.0333 0.0192 0.0000 (  2937 PWs)   bands (ev):

   -12.6804  -4.8847  -2.9943  -2.9022   0.2235   0.7267   1.2883   1.3446

          k = 0.0500 0.0289 0.0000 (  2929 PWs)   bands (ev):

   -12.6643  -4.8737  -3.1279  -2.9322   0.3314   0.7374   1.2882   1.4053

          k = 0.0667 0.0385 0.0000 (  2937 PWs)   bands (ev):

   -12.6418  -4.8594  -3.2969  -2.9727   0.4483   0.7520   1.3070   1.4887

          k = 0.0833 0.0481 0.0000 (  2935 PWs)   bands (ev):

   -12.6129  -4.8430  -3.4896  -3.0221   0.5431   0.7706   1.3670   1.5934

          k = 0.1000 0.0577 0.0000 (  2943 PWs)   bands (ev):

   -12.5777  -4.8274  -3.6954  -3.0792   0.5894   0.7931   1.4875   1.7177

          k = 0.1167 0.0674 0.0000 (  2947 PWs)   bands (ev):

   -12.5361  -4.8184  -3.9022  -3.1422   0.5847   0.8184   1.6668   1.8600

          k = 0.1333 0.0770 0.0000 (  2947 PWs)   bands (ev):

   -12.4882  -4.8288  -4.0928  -3.2098   0.5441   0.8443   1.8872   2.0187

          k = 0.1500 0.0866 0.0000 (  2951 PWs)   bands (ev):

   -12.4341  -4.8837  -4.2390  -3.2806   0.4819   0.8692   2.1304   2.1920

          k = 0.1667 0.0962 0.0000 (  2959 PWs)   bands (ev):

   -12.3738  -5.0079  -4.3136  -3.3534   0.4071   0.8910   2.3785   2.3785

          k = 0.1833 0.1058 0.0000 (  2953 PWs)   bands (ev):

   -12.3073  -5.1928  -4.3234  -3.4270   0.3251   0.9068   2.5767   2.5933

          k = 0.2000 0.1155 0.0000 (  2949 PWs)   bands (ev):

   -12.2348  -5.4116  -4.2938  -3.5005   0.2393   0.9129   2.6825   2.7850

          k = 0.2167 0.1251 0.0000 (  2957 PWs)   bands (ev):

   -12.1564  -5.6461  -4.2422  -3.5731   0.1521   0.9046   2.6594   3.0018

          k = 0.2333 0.1347 0.0000 (  2951 PWs)   bands (ev):

   -12.0721  -5.8873  -4.1766  -3.6440   0.0650   0.8770   2.6112   3.2252

          k = 0.2500 0.1443 0.0000 (  2963 PWs)   bands (ev):

   -11.9822  -6.1306  -4.1009  -3.7128  -0.0207   0.8261   2.5715   3.4528

          k = 0.2667 0.1540 0.0000 (  2951 PWs)   bands (ev):

   -11.8868  -6.3734  -4.0174  -3.7788  -0.1044   0.7499   2.5528   3.6816

          k = 0.2833 0.1636 0.0000 (  2941 PWs)   bands (ev):

   -11.7861  -6.6141  -3.9272  -3.8416  -0.1854   0.6497   2.5595   3.9071

          k = 0.3000 0.1732 0.0000 (  2939 PWs)   bands (ev):

   -11.6804  -6.8513  -3.9010  -3.8313  -0.2635   0.5292   2.5915   4.1229

          k = 0.3167 0.1828 0.0000 (  2935 PWs)   bands (ev):

   -11.5702  -7.0841  -3.9564  -3.7304  -0.3386   0.3937   2.6462   4.2538

          k = 0.3333 0.1925 0.0000 (  2929 PWs)   bands (ev):

   -11.4558  -7.3114  -4.0078  -3.6255  -0.4113   0.2492   2.7202   4.3741

          k = 0.3500 0.2021 0.0000 (  2929 PWs)   bands (ev):

   -11.3380  -7.5323  -4.0548  -3.5173  -0.4823   0.1018   2.8101   4.4947

          k = 0.3667 0.2117 0.0000 (  2919 PWs)   bands (ev):

   -11.2176  -7.7455  -4.0974  -3.4070  -0.5536  -0.0425   2.9130   4.6120

          k = 0.3833 0.2213 0.0000 (  2923 PWs)   bands (ev):

   -11.0959  -7.9496  -4.1352  -3.2958  -0.6279  -0.1767   3.0259   4.7193

          k = 0.4000 0.2309 0.0000 (  2933 PWs)   bands (ev):

   -10.9746  -8.1426  -4.1682  -3.1857  -0.7086  -0.2936   3.1464   4.7950

          k = 0.4167 0.2406 0.0000 (  2935 PWs)   bands (ev):

   -10.8562  -8.3219  -4.1964  -3.0792  -0.7972  -0.3876   3.2715   4.8104

          k = 0.4333 0.2502 0.0000 (  2933 PWs)   bands (ev):

   -10.7444  -8.4836  -4.2195  -2.9798  -0.8902  -0.4576   3.3974   4.8166

          k = 0.4500 0.2598 0.0000 (  2929 PWs)   bands (ev):

   -10.6444  -8.6226  -4.2375  -2.8920  -0.9791  -0.5066   3.5185   4.7681

          k = 0.4667 0.2694 0.0000 (  2930 PWs)   bands (ev):

   -10.5633  -8.7316  -4.2505  -2.8220  -1.0534  -0.5387   3.6257   4.6899

          k = 0.4833 0.2791 0.0000 (  2932 PWs)   bands (ev):

   -10.5095  -8.8021  -4.2582  -2.7761  -1.1029  -0.5569   3.7038   4.6246

          k = 0.5000 0.2887 0.0000 (  2946 PWs)   bands (ev):

   -10.4906  -8.8267  -4.2609  -2.7601  -1.1204  -0.5627   3.7332   4.5987

          k = 0.4944 0.2983 0.0000 (  2930 PWs)   bands (ev):

   -10.4894  -8.8267  -4.2689  -2.7582  -1.1205  -0.5525   3.7313   4.5995

          k = 0.4889 0.3079 0.0000 (  2926 PWs)   bands (ev):

   -10.4860  -8.8269  -4.2927  -2.7526  -1.1209  -0.5221   3.7252   4.6021

          k = 0.4833 0.3175 0.0000 (  2926 PWs)   bands (ev):

   -10.4803  -8.8272  -4.3312  -2.7437  -1.1216  -0.4723   3.7143   4.6062

          k = 0.4778 0.3272 0.0000 (  2930 PWs)   bands (ev):

   -10.4723  -8.8278  -4.3830  -2.7316  -1.1227  -0.4041   3.6974   4.6120

          k = 0.4722 0.3368 0.0000 (  2934 PWs)   bands (ev):

   -10.4620  -8.8286  -4.4464  -2.7169  -1.1241  -0.3188   3.6732   4.5533

          k = 0.4667 0.3464 0.0000 (  2934 PWs)   bands (ev):

   -10.4494  -8.8297  -4.5193  -2.6999  -1.1261  -0.2179   3.6398   4.4869

          k = 0.4611 0.3560 0.0000 (  2930 PWs)   bands (ev):

   -10.4346  -8.8313  -4.6000  -2.6808  -1.1286  -0.1029   3.5960   4.4295

          k = 0.4555 0.3656 0.0000 (  2928 PWs)   bands (ev):

   -10.4174  -8.8335  -4.6866  -2.6599  -1.1318   0.0247   3.5411   4.3836

          k = 0.4500 0.3753 0.0000 (  2932 PWs)   bands (ev):

   -10.3980  -8.8365  -4.7777  -2.6371  -1.1358   0.1635   3.4755   4.3501

          k = 0.4444 0.3849 0.0000 (  2936 PWs)   bands (ev):

   -10.3764  -8.8403  -4.8717  -2.6127  -1.1409   0.3124   3.4009   4.3285

          k = 0.4389 0.3945 0.0000 (  2932 PWs)   bands (ev):

   -10.3524  -8.8453  -4.9673  -2.5866  -1.1471   0.4702   3.3195   4.3174

          k = 0.4333 0.4041 0.0000 (  2928 PWs)   bands (ev):

   -10.3262  -8.8516  -5.0635  -2.5587  -1.1546   0.6358   3.2335   4.3152

          k = 0.4278 0.4137 0.0000 (  2924 PWs)   bands (ev):

   -10.2977  -8.8594  -5.1591  -2.5292  -1.1637   0.8086   3.1451   4.3203

          k = 0.4222 0.4234 0.0000 (  2926 PWs)   bands (ev):

   -10.2669  -8.8691  -5.2533  -2.4978  -1.1746   0.9876   3.0562   4.3314

          k = 0.4167 0.4330 0.0000 (  2930 PWs)   bands (ev):

   -10.2338  -8.8809  -5.3452  -2.4647  -1.1875   1.1723   2.9682   4.3474

          k = 0.4111 0.4426 0.0000 (  2926 PWs)   bands (ev):

   -10.1985  -8.8951  -5.4340  -2.4298  -1.2025   1.3620   2.8823   4.3674

          k = 0.4055 0.4522 0.0000 (  2924 PWs)   bands (ev):

   -10.1610  -8.9120  -5.5191  -2.3930  -1.2201   1.5563   2.7997   4.3905

          k = 0.4000 0.4618 0.0000 (  2924 PWs)   bands (ev):

   -10.1211  -8.9318  -5.5998  -2.3544  -1.2403   1.7546   2.7209   4.4162

          k = 0.3944 0.4715 0.0000 (  2920 PWs)   bands (ev):

   -10.0791  -8.9550  -5.6755  -2.3140  -1.2635   1.9565   2.6469   4.4436

          k = 0.3889 0.4811 0.0000 (  2924 PWs)   bands (ev):

   -10.0347  -8.9816  -5.7456  -2.2716  -1.2897   2.1615   2.5781   4.4720

          k = 0.3833 0.4907 0.0000 (  2916 PWs)   bands (ev):

    -9.9882  -9.0120  -5.8099  -2.2273  -1.3193   2.3693   2.5150   4.5006

          k = 0.3778 0.5003 0.0000 (  2916 PWs)   bands (ev):

    -9.9394  -9.0464  -5.8678  -2.1812  -1.3522   2.4581   2.5792   4.5279

          k = 0.3722 0.5099 0.0000 (  2920 PWs)   bands (ev):

    -9.8883  -9.0849  -5.9190  -2.1331  -1.3888   2.4075   2.7906   4.5522

          k = 0.3666 0.5196 0.0000 (  2920 PWs)   bands (ev):

    -9.8350  -9.1276  -5.9635  -2.0832  -1.4289   2.3636   3.0028   4.5713

          k = 0.3611 0.5292 0.0000 (  2924 PWs)   bands (ev):

    -9.7795  -9.1745  -6.0009  -2.0313  -1.4727   2.3265   3.2144   4.5818

          k = 0.3555 0.5388 0.0000 (  2922 PWs)   bands (ev):

    -9.7218  -9.2256  -6.0313  -1.9775  -1.5201   2.2962   3.4236   4.5461

          k = 0.3500 0.5484 0.0000 (  2932 PWs)   bands (ev):

    -9.6619  -9.2807  -6.0547  -1.9219  -1.5710   2.2728   3.6265   4.4766

          k = 0.3444 0.5581 0.0000 (  2934 PWs)   bands (ev):

    -9.5997  -9.3397  -6.0712  -1.8644  -1.6253   2.2563   3.8144   4.4108

          k = 0.3389 0.5677 0.0000 (  2926 PWs)   bands (ev):

    -9.5354  -9.4024  -6.0809  -1.8051  -1.6829   2.2465   3.9627   4.3710

          k = 0.3333 0.5773 0.0000 (  2922 PWs)   bands (ev):

    -9.4691  -9.4681  -6.0841  -1.7445  -1.7429   2.2432   4.0193   4.4025

          k = 0.3222 0.5580 0.0054 (  2929 PWs)   bands (ev):

    -9.6101  -9.3285  -6.0719  -1.8736  -1.6155   2.2558   3.9051   4.2374

          k = 0.3111 0.5388 0.0108 (  2913 PWs)   bands (ev):

    -9.7610  -9.1801  -6.0368  -2.0125  -1.4807   2.2918   3.7201   4.0528

          k = 0.3000 0.5196 0.0162 (  2912 PWs)   bands (ev):

    -9.9190  -9.0231  -5.9815  -2.1585  -1.3391   2.3489   3.5246   3.8615

          k = 0.2889 0.5003 0.0216 (  2918 PWs)   bands (ev):

   -10.0818  -8.8576  -5.9082  -2.3095  -1.1912   2.4242   3.3291   3.6707

          k = 0.2778 0.4811 0.0269 (  2918 PWs)   bands (ev):

   -10.2471  -8.6837  -5.8192  -2.4635  -1.0373   2.5138   3.1374   3.4853

          k = 0.2666 0.4618 0.0323 (  2923 PWs)   bands (ev):

   -10.4132  -8.5014  -5.7164  -2.6189  -0.8780   2.6111   2.9516   3.3119

          k = 0.2555 0.4426 0.0377 (  2921 PWs)   bands (ev):

   -10.5784  -8.3108  -5.6017  -2.7740  -0.7142   2.6982   2.7728   3.1676

          k = 0.2444 0.4233 0.0431 (  2918 PWs)   bands (ev):

   -10.7414  -8.1122  -5.4765  -2.9274  -0.5466   2.6019   2.7201   3.1058

          k = 0.2333 0.4041 0.0485 (  2922 PWs)   bands (ev):

   -10.9011  -7.9057  -5.3424  -3.0781  -0.3765   2.4395   2.6332   3.1680

          k = 0.2222 0.3849 0.0539 (  2920 PWs)   bands (ev):

   -11.0566  -7.6914  -5.2006  -3.2251  -0.2056   2.2861   2.4966   3.2137

          k = 0.2111 0.3656 0.0593 (  2925 PWs)   bands (ev):

   -11.2073  -7.4697  -5.0526  -3.3674  -0.0359   2.1420   2.3493   3.0816

          k = 0.2000 0.3464 0.0647 (  2931 PWs)   bands (ev):

   -11.3524  -7.2407  -4.8994  -3.5043   0.1299   2.0077   2.2023   2.9669

          k = 0.1889 0.3271 0.0701 (  2932 PWs)   bands (ev):

   -11.4916  -7.0049  -4.7423  -3.6351   0.2883   1.8833   2.0594   2.8738

          k = 0.1778 0.3079 0.0754 (  2933 PWs)   bands (ev):

   -11.6242  -6.7627  -4.5827  -3.7592   0.4352   1.7690   1.9219   2.8062

          k = 0.1667 0.2886 0.0808 (  2928 PWs)   bands (ev):

   -11.7501  -6.5147  -4.4218  -3.8757   0.5657   1.6650   1.7904   2.7679

          k = 0.1555 0.2694 0.0862 (  2936 PWs)   bands (ev):

   -11.8689  -6.2620  -4.2612  -3.9839   0.6754   1.5714   1.6651   2.7617

          k = 0.1444 0.2502 0.0916 (  2931 PWs)   bands (ev):

   -11.9803  -6.0057  -4.1021  -4.0826   0.7612   1.4881   1.5460   2.7873

          k = 0.1333 0.2309 0.0970 (  2943 PWs)   bands (ev):

   -12.0841  -5.7483  -4.1698  -3.9463   0.8223   1.4156   1.4329   2.8363

          k = 0.1222 0.2117 0.1024 (  2942 PWs)   bands (ev):

   -12.1802  -5.4940  -4.2418  -3.7954   0.8607   1.3252   1.3543   2.8796

          k = 0.1111 0.1924 0.1078 (  2941 PWs)   bands (ev):

   -12.2683  -5.2511  -4.2911  -3.6510   0.8798   1.2219   1.3050   2.8633

          k = 0.1000 0.1732 0.1132 (  2947 PWs)   bands (ev):

   -12.3484  -5.0388  -4.2996  -3.5148   0.8835   1.1217   1.2686   2.7944

          k = 0.0889 0.1539 0.1186 (  2945 PWs)   bands (ev):

   -12.4203  -4.8911  -4.2351  -3.3885   0.8758   1.0219   1.2456   2.6913

          k = 0.0778 0.1347 0.1239 (  2939 PWs)   bands (ev):

   -12.4840  -4.8268  -4.0809  -3.2735   0.8604   0.9191   1.2353   2.3725

          k = 0.0667 0.1155 0.1293 (  2945 PWs)   bands (ev):

   -12.5393  -4.8176  -3.8690  -3.1714   0.8078   0.8408   1.2355   2.0700

          k = 0.0556 0.0962 0.1347 (  2944 PWs)   bands (ev):

   -12.5862  -4.8305  -3.6371  -3.0832   0.6824   0.8200   1.2436   1.8112

          k = 0.0444 0.0770 0.1401 (  2931 PWs)   bands (ev):

   -12.6247  -4.8494  -3.4085  -3.0099   0.5408   0.8005   1.2563   1.6068

          k = 0.0333 0.0577 0.1455 (  2920 PWs)   bands (ev):

   -12.6547  -4.8675  -3.2006  -2.9523   0.3914   0.7840   1.2706   1.4599

          k = 0.0222 0.0385 0.1509 (  2915 PWs)   bands (ev):

   -12.6761  -4.8818  -3.0306  -2.9108   0.2547   0.7715   1.2833   1.3646

          k = 0.0111 0.0192 0.1563 (  2912 PWs)   bands (ev):

   -12.6889  -4.8908  -2.9175  -2.8859   0.1573   0.7638   1.2921   1.3120

          k = 0.0000 0.0000 0.1617 (  2908 PWs)   bands (ev):

   -12.6932  -4.8939  -2.8775  -2.8775   0.1219   0.7612   1.2952   1.2952

     Writing output data file /home/jesus/Documentos/Nanociencia_DFT/test.save/
 
     init_run     :      0.61s CPU      0.73s WALL (       1 calls)
     electrons    :     41.05s CPU     41.96s WALL (       1 calls)

     Called by init_run:
     wfcinit      :      0.00s CPU      0.00s WALL (       1 calls)
     potinit      :      0.09s CPU      0.12s WALL (       1 calls)
     hinit0       :      0.28s CPU      0.29s WALL (       1 calls)

     Called by electrons:
     c_bands      :     41.05s CPU     41.96s WALL (       1 calls)
     v_of_rho     :      0.09s CPU      0.10s WALL (       1 calls)
     newd         :      0.16s CPU      0.25s WALL (       1 calls)

     Called by c_bands:
     init_us_2    :      0.09s CPU      0.11s WALL (      91 calls)
     cegterg      :     38.57s CPU     39.37s WALL (     255 calls)

     Called by *egterg:
     cdiaghg      :      0.70s CPU      0.71s WALL (    4278 calls)
     h_psi        :     33.06s CPU     33.75s WALL (    4533 calls)
     s_psi        :      1.46s CPU      1.49s WALL (    4533 calls)
     g_psi        :      0.20s CPU      0.21s WALL (    4187 calls)

     Called by h_psi:
     h_psi:calbec :      1.72s CPU      1.76s WALL (    4533 calls)
     vloc_psi     :     29.54s CPU     30.16s WALL (    4533 calls)
     add_vuspsi   :      1.60s CPU      1.63s WALL (    4533 calls)

     General routines
     calbec       :      1.70s CPU      1.74s WALL (    4533 calls)
     fft          :      0.03s CPU      0.03s WALL (      13 calls)
     ffts         :      0.00s CPU      0.00s WALL (       1 calls)
     fftw         :     25.10s CPU     25.64s WALL (   37312 calls)
     interpolate  :      0.00s CPU      0.00s WALL (       1 calls)
     davcio       :      0.04s CPU      0.08s WALL (     182 calls)
 
     Parallel routines
 
     PWSCF        :     42.57s CPU     44.08s WALL

 
   This run was terminated on:  18:13:44  18Mar2021            

=------------------------------------------------------------------------------=
   JOB DONE.
=------------------------------------------------------------------------------=
