
     Program PWSCF v.6.6 starts on 30Mar2021 at  0:55:34 

     This program is part of the open-source Quantum ESPRESSO suite
     for quantum simulation of materials; please cite
         "P. Giannozzi et al., J. Phys.:Condens. Matter 21 395502 (2009);
         "P. Giannozzi et al., J. Phys.:Condens. Matter 29 465901 (2017);
          URL http://www.quantum-espresso.org", 
     in publications or presentations arising from this work. More details at
     http://www.quantum-espresso.org/quote

     Parallel version (MPI), running on     1 processors

     MPI processes distributed on     1 nodes
     Fft bands division:     nmany     =       1
     Waiting for input...
     Reading input from standard input
Warning: card &CELL ignored
Warning: card   CELL_DYNAMICS='BFGS', ignored
Warning: card   CELL_DOFREE='ALL', ignored
Warning: card / ignored

     Current dimensions of program PWSCF are:
     Max number of different atomic species (ntypx) = 10
     Max number of k-points (npk) =  40000
     Max angular momentum in pseudopotentials (lmaxx) =  3

     Subspace diagonalization in iterative solution of the eigenvalue problem:
     a serial algorithm will be used

 
     G-vector sticks info
     --------------------
     sticks:   dense  smooth     PW     G-vecs:    dense   smooth      PW
     Sum         889     439    139                66219    23461    3865
 


     bravais-lattice index     =            4
     lattice parameter (alat)  =       7.3321  a.u.
     unit-cell volume          =    1055.7764 (a.u.)^3
     number of atoms/cell      =            2
     number of atomic types    =            1
     number of electrons       =         8.00
     number of Kohn-Sham states=            8
     kinetic-energy cutoff     =      30.0000  Ry
     charge density cutoff     =     240.0000  Ry
     convergence threshold     =      1.0E-06
     mixing beta               =       0.7000
     number of iterations used =            8  plain     mixing
     Exchange-correlation= PBE
                           (   1   4   3   4   0   0   0)

     celldm(1)=   7.332137  celldm(2)=   0.000000  celldm(3)=   3.092784
     celldm(4)=   0.000000  celldm(5)=   0.000000  celldm(6)=   0.000000

     crystal axes: (cart. coord. in units of alat)
               a(1) = (   1.000000   0.000000   0.000000 )  
               a(2) = (  -0.500000   0.866025   0.000000 )  
               a(3) = (   0.000000   0.000000   3.092784 )  

     reciprocal axes: (cart. coord. in units 2 pi/alat)
               b(1) = (  1.000000  0.577350  0.000000 )  
               b(2) = (  0.000000  1.154701  0.000000 )  
               b(3) = (  0.000000  0.000000  0.323333 )  


     PseudoPot. # 1 for Si read from file:
     /home/jesus/Documentos/Nanociencia_DFT/pseudopotenciales/Si.pbe-n-rrkjus_psl.1.0.0.UPF
     MD5 check sum: fa25574f73a70a4139f2adfbefec430c
     Pseudo is Ultrasoft + core correction, Zval =  4.0
     Generated using "atomic" code by A. Dal Corso v.6.3
     Using radial grid of 1141 points,  6 beta functions with: 
                l(1) =   0
                l(2) =   0
                l(3) =   1
                l(4) =   1
                l(5) =   2
                l(6) =   2
     Q(r) pseudized with 0 coefficients 


     atomic species   valence    mass     pseudopotential
        Si             4.00    28.08550     Si( 1.00)

      6 Sym. Ops. (no inversion) found



   Cartesian axes

     site n.     atom                  positions (alat units)
         1           Si  tau(   1) = (  -0.0000000   0.5773503   1.5209498  )
         2           Si  tau(   2) = (   0.5000000   0.2886751   1.6491100  )

     number of k points=   444  Methfessel-Paxton smearing, width (Ry)=  0.0100

     Number of k-points >= 100: set verbosity='high' to print them.

     Dense  grid:    66219 G-vectors     FFT dimensions: (  40,  40, 120)

     Smooth grid:    23461 G-vectors     FFT dimensions: (  25,  25,  80)

     Estimated max dynamical RAM per process >     392.37 MB

     Initial potential from superposition of free atoms

     starting charge    7.99888, renormalised to    8.00000

     negative rho (up, down):  2.390E-06 0.000E+00
     Starting wfcs are    8 randomized atomic wfcs

     total cpu time spent up to now is        8.2 secs

     Self-consistent Calculation

     iteration #  1     ecut=    30.00 Ry     beta= 0.70
     Davidson diagonalization with overlap
     ethr =  1.00E-02,  avg # of iterations =  4.5

     Threshold (ethr) on eigenvalues was too large:
     Diagonalizing with lowered threshold

     Davidson diagonalization with overlap
     ethr =  7.23E-04,  avg # of iterations =  1.9

     negative rho (up, down):  9.584E-07 0.000E+00

     total cpu time spent up to now is       53.7 secs

     total energy              =     -22.73899533 Ry
     estimated scf accuracy    <       0.06340138 Ry

     iteration #  2     ecut=    30.00 Ry     beta= 0.70
     Davidson diagonalization with overlap
     ethr =  7.93E-04,  avg # of iterations =  2.9

     negative rho (up, down):  1.422E-06 0.000E+00

     total cpu time spent up to now is       73.0 secs

     total energy              =     -22.74540520 Ry
     estimated scf accuracy    <       0.00185051 Ry

     iteration #  3     ecut=    30.00 Ry     beta= 0.70
     Davidson diagonalization with overlap
     c_bands:  1 eigenvalues not converged
     c_bands:  1 eigenvalues not converged
     c_bands:  1 eigenvalues not converged
     ethr =  2.31E-05,  avg # of iterations =  8.5

     negative rho (up, down):  1.884E-06 0.000E+00

     total cpu time spent up to now is      101.4 secs

     total energy              =     -22.74558142 Ry
     estimated scf accuracy    <       0.00010979 Ry

     iteration #  4     ecut=    30.00 Ry     beta= 0.70
     Davidson diagonalization with overlap
     c_bands:  1 eigenvalues not converged
     c_bands:  1 eigenvalues not converged
     c_bands:  1 eigenvalues not converged
     c_bands:  1 eigenvalues not converged
     c_bands:  1 eigenvalues not converged
     c_bands:  1 eigenvalues not converged
     c_bands:  1 eigenvalues not converged
     c_bands:  1 eigenvalues not converged
     ethr =  1.37E-06,  avg # of iterations =  5.7

     negative rho (up, down):  1.872E-06 0.000E+00

     total cpu time spent up to now is      125.5 secs

     End of self-consistent calculation

     Number of k-points >= 100: set verbosity='high' to print the bands.

     the Fermi energy is    -1.7781 ev

!    total energy              =     -22.74559384 Ry
     estimated scf accuracy    <       0.00000091 Ry
     smearing contrib. (-TS)   =       0.00001909 Ry
     internal energy E=F+TS    =     -22.74561293 Ry

     The total energy is F=E-TS. E is the sum of the following terms:
     one-electron contribution =     -37.55529318 Ry
     hartree contribution      =      20.05179049 Ry
     xc contribution           =     -12.12534494 Ry
     ewald contribution        =       6.88323470 Ry

     convergence has been achieved in   4 iterations

     Writing output data file /home/jesus/Documentos/Nanociencia_DFT/test.save/
 
     init_run     :      7.19s CPU      7.57s WALL (       1 calls)
     electrons    :    115.48s CPU    117.26s WALL (       1 calls)

     Called by init_run:
     wfcinit      :      6.46s CPU      6.59s WALL (       1 calls)
     potinit      :      0.11s CPU      0.15s WALL (       1 calls)
     hinit0       :      0.29s CPU      0.32s WALL (       1 calls)

     Called by electrons:
     c_bands      :    100.05s CPU    100.62s WALL (       5 calls)
     sum_band     :     14.48s CPU     15.20s WALL (       5 calls)
     v_of_rho     :      0.42s CPU      0.45s WALL (       5 calls)
     newd         :      0.70s CPU      1.21s WALL (       5 calls)
     mix_rho      :      0.03s CPU      0.09s WALL (       5 calls)

     Called by c_bands:
     init_us_2    :      4.30s CPU      4.34s WALL (    4884 calls)
     cegterg      :     79.92s CPU     80.41s WALL (    2220 calls)

     Called by *egterg:
     cdiaghg      :      1.55s CPU      1.57s WALL (   12187 calls)
     h_psi        :     72.41s CPU     72.91s WALL (   13075 calls)
     s_psi        :      2.94s CPU      2.97s WALL (   13075 calls)
     g_psi        :      0.38s CPU      0.39s WALL (   10411 calls)

     Called by h_psi:
     h_psi:calbec :      3.74s CPU      3.77s WALL (   13075 calls)
     vloc_psi     :     64.85s CPU     65.30s WALL (   13075 calls)
     add_vuspsi   :      3.34s CPU      3.37s WALL (   13075 calls)

     General routines
     calbec       :      4.62s CPU      4.65s WALL (   15295 calls)
     fft          :      0.15s CPU      0.18s WALL (      64 calls)
     ffts         :      0.01s CPU      0.01s WALL (      10 calls)
     fftw         :     65.76s CPU     66.20s WALL (  131520 calls)
     interpolate  :      0.02s CPU      0.02s WALL (       5 calls)
 
     Parallel routines
 
     PWSCF        :   2m 3.59s CPU   2m 9.67s WALL

 
   This run was terminated on:   0:57:44  30Mar2021            

=------------------------------------------------------------------------------=
   JOB DONE.
=------------------------------------------------------------------------------=
