
     Program PWSCF v.6.6 starts on 18Mar2021 at 18: 2:37 

     This program is part of the open-source Quantum ESPRESSO suite
     for quantum simulation of materials; please cite
         "P. Giannozzi et al., J. Phys.:Condens. Matter 21 395502 (2009);
         "P. Giannozzi et al., J. Phys.:Condens. Matter 29 465901 (2017);
          URL http://www.quantum-espresso.org", 
     in publications or presentations arising from this work. More details at
     http://www.quantum-espresso.org/quote

     Parallel version (MPI), running on     1 processors

     MPI processes distributed on     1 nodes
     Fft bands division:     nmany     =       1
     Waiting for input...
     Reading input from standard input
Warning: card &CELL ignored
Warning: card   CELL_DYNAMICS='BFGS', ignored
Warning: card   CELL_DOFREE='ALL', ignored
Warning: card / ignored

     Current dimensions of program PWSCF are:
     Max number of different atomic species (ntypx) = 10
     Max number of k-points (npk) =  40000
     Max angular momentum in pseudopotentials (lmaxx) =  3

     Subspace diagonalization in iterative solution of the eigenvalue problem:
     a serial algorithm will be used

 
     G-vector sticks info
     --------------------
     sticks:   dense  smooth     PW     G-vecs:    dense   smooth      PW
     Sum         889     439    139                66219    23461    3925
 


     bravais-lattice index     =            4
     lattice parameter (alat)  =       7.3321  a.u.
     unit-cell volume          =    1055.7764 (a.u.)^3
     number of atoms/cell      =            2
     number of atomic types    =            1
     number of electrons       =         8.00
     number of Kohn-Sham states=            8
     kinetic-energy cutoff     =      30.0000  Ry
     charge density cutoff     =     240.0000  Ry
     convergence threshold     =      1.0E-06
     mixing beta               =       0.7000
     number of iterations used =            8  plain     mixing
     Exchange-correlation= PBE
                           (   1   4   3   4   0   0   0)

     celldm(1)=   7.332137  celldm(2)=   0.000000  celldm(3)=   3.092784
     celldm(4)=   0.000000  celldm(5)=   0.000000  celldm(6)=   0.000000

     crystal axes: (cart. coord. in units of alat)
               a(1) = (   1.000000   0.000000   0.000000 )  
               a(2) = (  -0.500000   0.866025   0.000000 )  
               a(3) = (   0.000000   0.000000   3.092784 )  

     reciprocal axes: (cart. coord. in units 2 pi/alat)
               b(1) = (  1.000000  0.577350  0.000000 )  
               b(2) = (  0.000000  1.154701  0.000000 )  
               b(3) = (  0.000000  0.000000  0.323333 )  


     PseudoPot. # 1 for Si read from file:
     /home/jesus/Documentos/Nanociencia_DFT/pseudopotenciales/Si.pbe-n-rrkjus_psl.1.0.0.UPF
     MD5 check sum: fa25574f73a70a4139f2adfbefec430c
     Pseudo is Ultrasoft + core correction, Zval =  4.0
     Generated using "atomic" code by A. Dal Corso v.6.3
     Using radial grid of 1141 points,  6 beta functions with: 
                l(1) =   0
                l(2) =   0
                l(3) =   1
                l(4) =   1
                l(5) =   2
                l(6) =   2
     Q(r) pseudized with 0 coefficients 


     atomic species   valence    mass     pseudopotential
        Si             4.00    28.08550     Si( 1.00)

      6 Sym. Ops. (no inversion) found



   Cartesian axes

     site n.     atom                  positions (alat units)
         1           Si  tau(   1) = (  -0.0000000   0.5773503   1.5209498  )
         2           Si  tau(   2) = (   0.5000000   0.2886751   1.6491100  )

     number of k points=     3  Methfessel-Paxton smearing, width (Ry)=  0.0100
                       cart. coord. in units 2pi/alat
        k(    1) = (   0.0000000   0.0000000   0.0000000), wk =   0.2222222
        k(    2) = (   0.0000000   0.3849002   0.0000000), wk =   1.3333333
        k(    3) = (   0.3333333   0.5773503   0.0000000), wk =   0.4444444

     Dense  grid:    66219 G-vectors     FFT dimensions: (  40,  40, 120)

     Smooth grid:    23461 G-vectors     FFT dimensions: (  25,  25,  80)

     Estimated max dynamical RAM per process >     234.63 MB

     Initial potential from superposition of free atoms

     starting charge    7.99888, renormalised to    8.00000

     negative rho (up, down):  2.390E-06 0.000E+00
     Starting wfcs are    8 randomized atomic wfcs

     total cpu time spent up to now is        3.2 secs

     Self-consistent Calculation

     iteration #  1     ecut=    30.00 Ry     beta= 0.70
     Davidson diagonalization with overlap
     ethr =  1.00E-02,  avg # of iterations =  4.3

     Threshold (ethr) on eigenvalues was too large:
     Diagonalizing with lowered threshold

     Davidson diagonalization with overlap
     ethr =  8.36E-04,  avg # of iterations =  1.0

     negative rho (up, down):  1.020E-06 0.000E+00

     total cpu time spent up to now is        5.6 secs

     total energy              =     -22.70584372 Ry
     estimated scf accuracy    <       0.07248648 Ry

     iteration #  2     ecut=    30.00 Ry     beta= 0.70
     Davidson diagonalization with overlap
     ethr =  9.06E-04,  avg # of iterations =  2.0

     negative rho (up, down):  1.430E-06 0.000E+00

     total cpu time spent up to now is        6.9 secs

     total energy              =     -22.71272157 Ry
     estimated scf accuracy    <       0.00236203 Ry

     iteration #  3     ecut=    30.00 Ry     beta= 0.70
     Davidson diagonalization with overlap
     ethr =  2.95E-05,  avg # of iterations =  6.7

     negative rho (up, down):  1.845E-06 0.000E+00

     total cpu time spent up to now is        8.6 secs

     total energy              =     -22.71292520 Ry
     estimated scf accuracy    <       0.00012075 Ry

     iteration #  4     ecut=    30.00 Ry     beta= 0.70
     Davidson diagonalization with overlap
     ethr =  1.51E-06,  avg # of iterations =  5.7

     negative rho (up, down):  1.823E-06 0.000E+00

     total cpu time spent up to now is        9.6 secs

     total energy              =     -22.71293905 Ry
     estimated scf accuracy    <       0.00000814 Ry

     iteration #  5     ecut=    30.00 Ry     beta= 0.70
     Davidson diagonalization with overlap
     ethr =  1.02E-07,  avg # of iterations =  1.7

     negative rho (up, down):  1.808E-06 0.000E+00

     total cpu time spent up to now is       10.6 secs

     total energy              =     -22.71294108 Ry
     estimated scf accuracy    <       0.00000971 Ry

     iteration #  6     ecut=    30.00 Ry     beta= 0.70
     Davidson diagonalization with overlap
     ethr =  1.02E-07,  avg # of iterations =  1.0

     negative rho (up, down):  1.804E-06 0.000E+00

     total cpu time spent up to now is       11.5 secs

     End of self-consistent calculation

          k = 0.0000 0.0000 0.0000 (  2919 PWs)   bands (ev):

   -12.6921  -4.8934  -2.8762  -2.8762   0.1230   0.7181   1.2964   1.2964

          k = 0.0000 0.3849 0.0000 (  2929 PWs)   bands (ev):

   -11.4547  -7.3103  -4.0065  -3.6251  -0.4105   0.2498   2.7205   4.4892

          k = 0.3333 0.5774 0.0000 (  2922 PWs)   bands (ev):

    -9.4675  -9.4673  -6.0831  -1.7433  -1.7432   2.2434   4.4040   4.4042

     the Fermi energy is    -1.7432 ev

!    total energy              =     -22.71294187 Ry
     estimated scf accuracy    <       0.00000012 Ry
     smearing contrib. (-TS)   =      -0.00125375 Ry
     internal energy E=F+TS    =     -22.71168811 Ry

     The total energy is F=E-TS. E is the sum of the following terms:
     one-electron contribution =     -37.53666983 Ry
     hartree contribution      =      20.08083136 Ry
     xc contribution           =     -12.13908434 Ry
     ewald contribution        =       6.88323470 Ry

     convergence has been achieved in   6 iterations

     Writing output data file /home/jesus/Documentos/Nanociencia_DFT/test.save/
 
     init_run     :      1.10s CPU      1.94s WALL (       1 calls)
     electrons    :      6.50s CPU      8.37s WALL (       1 calls)

     Called by init_run:
     wfcinit      :      0.12s CPU      0.25s WALL (       1 calls)
     potinit      :      0.22s CPU      0.40s WALL (       1 calls)
     hinit0       :      0.37s CPU      0.63s WALL (       1 calls)

     Called by electrons:
     c_bands      :      1.73s CPU      1.83s WALL (       7 calls)
     sum_band     :      2.46s CPU      3.37s WALL (       7 calls)
     v_of_rho     :      0.84s CPU      1.00s WALL (       7 calls)
     newd         :      1.81s CPU      2.77s WALL (       7 calls)
     mix_rho      :      0.08s CPU      0.08s WALL (       7 calls)

     Called by c_bands:
     init_us_2    :      0.07s CPU      0.07s WALL (      45 calls)
     cegterg      :      1.44s CPU      1.54s WALL (      21 calls)

     Called by *egterg:
     cdiaghg      :      0.02s CPU      0.13s WALL (      85 calls)
     h_psi        :      1.33s CPU      1.40s WALL (      91 calls)
     s_psi        :      0.06s CPU      0.06s WALL (      91 calls)
     g_psi        :      0.01s CPU      0.01s WALL (      67 calls)

     Called by h_psi:
     h_psi:calbec :      0.06s CPU      0.06s WALL (      91 calls)
     vloc_psi     :      1.20s CPU      1.26s WALL (      91 calls)
     add_vuspsi   :      0.06s CPU      0.06s WALL (      91 calls)

     General routines
     calbec       :      0.07s CPU      0.08s WALL (     112 calls)
     fft          :      0.33s CPU      0.63s WALL (      90 calls)
     ffts         :      0.01s CPU      0.02s WALL (      14 calls)
     fftw         :      1.14s CPU      1.20s WALL (    1132 calls)
     interpolate  :      0.05s CPU      0.05s WALL (       7 calls)
 
     Parallel routines
 
     PWSCF        :      8.40s CPU     11.68s WALL

 
   This run was terminated on:  18: 2:49  18Mar2021            

=------------------------------------------------------------------------------=
   JOB DONE.
=------------------------------------------------------------------------------=
