
     Program PWSCF v.6.6 starts on 30Mar2021 at  1: 1:59 

     This program is part of the open-source Quantum ESPRESSO suite
     for quantum simulation of materials; please cite
         "P. Giannozzi et al., J. Phys.:Condens. Matter 21 395502 (2009);
         "P. Giannozzi et al., J. Phys.:Condens. Matter 29 465901 (2017);
          URL http://www.quantum-espresso.org", 
     in publications or presentations arising from this work. More details at
     http://www.quantum-espresso.org/quote

     Parallel version (MPI), running on     1 processors

     MPI processes distributed on     1 nodes
     Fft bands division:     nmany     =       1
     Waiting for input...
     Reading input from standard input
Warning: card &IONS ignored
Warning: card   ION_DYNAMICS='BFGS', ignored
Warning: card / ignored
Warning: card &CELL ignored
Warning: card   CELL_DYNAMICS='BFGS', ignored
Warning: card   CELL_DOFREE='ALL', ignored
Warning: card / ignored

     Current dimensions of program PWSCF are:
     Max number of different atomic species (ntypx) = 10
     Max number of k-points (npk) =  40000
     Max angular momentum in pseudopotentials (lmaxx) =  3

     Atomic positions and unit cell read from directory:
     /home/jesus/Documentos/Nanociencia_DFT/test.save/
     Atomic positions from file used, from input discarded
 

     Subspace diagonalization in iterative solution of the eigenvalue problem:
     a serial algorithm will be used

 
     G-vector sticks info
     --------------------
     sticks:   dense  smooth     PW     G-vecs:    dense   smooth      PW
     Sum         889     439    139                66219    23461    3925
 


     bravais-lattice index     =            4
     lattice parameter (alat)  =       7.3321  a.u.
     unit-cell volume          =    1055.7764 (a.u.)^3
     number of atoms/cell      =            2
     number of atomic types    =            1
     number of electrons       =         8.00
     number of Kohn-Sham states=            8
     kinetic-energy cutoff     =      30.0000  Ry
     charge density cutoff     =     240.0000  Ry
     Exchange-correlation= PBE
                           (   1   4   3   4   0   0   0)

     celldm(1)=   7.332137  celldm(2)=   0.000000  celldm(3)=   3.092784
     celldm(4)=   0.000000  celldm(5)=   0.000000  celldm(6)=   0.000000

     crystal axes: (cart. coord. in units of alat)
               a(1) = (   1.000000   0.000000   0.000000 )  
               a(2) = (  -0.500000   0.866025   0.000000 )  
               a(3) = (   0.000000   0.000000   3.092784 )  

     reciprocal axes: (cart. coord. in units 2 pi/alat)
               b(1) = (  1.000000  0.577350  0.000000 )  
               b(2) = (  0.000000  1.154701  0.000000 )  
               b(3) = (  0.000000  0.000000  0.323333 )  


     PseudoPot. # 1 for Si read from file:
     /home/jesus/Documentos/Nanociencia_DFT/pseudopotenciales/Si.pbe-n-rrkjus_psl.1.0.0.UPF
     MD5 check sum: fa25574f73a70a4139f2adfbefec430c
     Pseudo is Ultrasoft + core correction, Zval =  4.0
     Generated using "atomic" code by A. Dal Corso v.6.3
     Using radial grid of 1141 points,  6 beta functions with: 
                l(1) =   0
                l(2) =   0
                l(3) =   1
                l(4) =   1
                l(5) =   2
                l(6) =   2
     Q(r) pseudized with 0 coefficients 


     atomic species   valence    mass     pseudopotential
        Si             4.00    28.08550     Si( 1.00)

      6 Sym. Ops. (no inversion) found



   Cartesian axes

     site n.     atom                  positions (alat units)
         1           Si  tau(   1) = (  -0.0000000   0.5773503   1.5209498  )
         2           Si  tau(   2) = (   0.5000000   0.2886751   1.6491100  )

     number of k points=    91  Methfessel-Paxton smearing, width (Ry)=  0.0100
                       cart. coord. in units 2pi/alat
        k(    1) = (   0.0000000   0.0000000   0.0000000), wk =   0.0219780
        k(    2) = (   0.0166667   0.0096225   0.0000000), wk =   0.0219780
        k(    3) = (   0.0333333   0.0192450   0.0000000), wk =   0.0219780
        k(    4) = (   0.0500000   0.0288675   0.0000000), wk =   0.0219780
        k(    5) = (   0.0666667   0.0384900   0.0000000), wk =   0.0219780
        k(    6) = (   0.0833333   0.0481125   0.0000000), wk =   0.0219780
        k(    7) = (   0.1000000   0.0577350   0.0000000), wk =   0.0219780
        k(    8) = (   0.1166667   0.0673575   0.0000000), wk =   0.0219780
        k(    9) = (   0.1333333   0.0769800   0.0000000), wk =   0.0219780
        k(   10) = (   0.1500000   0.0866025   0.0000000), wk =   0.0219780
        k(   11) = (   0.1666667   0.0962250   0.0000000), wk =   0.0219780
        k(   12) = (   0.1833333   0.1058475   0.0000000), wk =   0.0219780
        k(   13) = (   0.2000000   0.1154701   0.0000000), wk =   0.0219780
        k(   14) = (   0.2166667   0.1250926   0.0000000), wk =   0.0219780
        k(   15) = (   0.2333333   0.1347151   0.0000000), wk =   0.0219780
        k(   16) = (   0.2500000   0.1443376   0.0000000), wk =   0.0219780
        k(   17) = (   0.2666667   0.1539601   0.0000000), wk =   0.0219780
        k(   18) = (   0.2833333   0.1635826   0.0000000), wk =   0.0219780
        k(   19) = (   0.3000000   0.1732051   0.0000000), wk =   0.0219780
        k(   20) = (   0.3166667   0.1828276   0.0000000), wk =   0.0219780
        k(   21) = (   0.3333333   0.1924501   0.0000000), wk =   0.0219780
        k(   22) = (   0.3500000   0.2020726   0.0000000), wk =   0.0219780
        k(   23) = (   0.3666667   0.2116951   0.0000000), wk =   0.0219780
        k(   24) = (   0.3833333   0.2213176   0.0000000), wk =   0.0219780
        k(   25) = (   0.4000000   0.2309401   0.0000000), wk =   0.0219780
        k(   26) = (   0.4166667   0.2405626   0.0000000), wk =   0.0219780
        k(   27) = (   0.4333333   0.2501851   0.0000000), wk =   0.0219780
        k(   28) = (   0.4500000   0.2598076   0.0000000), wk =   0.0219780
        k(   29) = (   0.4666667   0.2694301   0.0000000), wk =   0.0219780
        k(   30) = (   0.4833333   0.2790526   0.0000000), wk =   0.0219780
        k(   31) = (   0.5000000   0.2886751   0.0000000), wk =   0.0219780
        k(   32) = (   0.4944433   0.2982957   0.0000000), wk =   0.0219780
        k(   33) = (   0.4888867   0.3079163   0.0000000), wk =   0.0219780
        k(   34) = (   0.4833300   0.3175369   0.0000000), wk =   0.0219780
        k(   35) = (   0.4777733   0.3271575   0.0000000), wk =   0.0219780
        k(   36) = (   0.4722167   0.3367780   0.0000000), wk =   0.0219780
        k(   37) = (   0.4666600   0.3463986   0.0000000), wk =   0.0219780
        k(   38) = (   0.4611033   0.3560192   0.0000000), wk =   0.0219780
        k(   39) = (   0.4555467   0.3656398   0.0000000), wk =   0.0219780
        k(   40) = (   0.4499900   0.3752604   0.0000000), wk =   0.0219780
        k(   41) = (   0.4444333   0.3848809   0.0000000), wk =   0.0219780
        k(   42) = (   0.4388767   0.3945015   0.0000000), wk =   0.0219780
        k(   43) = (   0.4333200   0.4041221   0.0000000), wk =   0.0219780
        k(   44) = (   0.4277633   0.4137427   0.0000000), wk =   0.0219780
        k(   45) = (   0.4222067   0.4233633   0.0000000), wk =   0.0219780
        k(   46) = (   0.4166500   0.4329838   0.0000000), wk =   0.0219780
        k(   47) = (   0.4110933   0.4426044   0.0000000), wk =   0.0219780
        k(   48) = (   0.4055367   0.4522250   0.0000000), wk =   0.0219780
        k(   49) = (   0.3999800   0.4618456   0.0000000), wk =   0.0219780
        k(   50) = (   0.3944233   0.4714662   0.0000000), wk =   0.0219780
        k(   51) = (   0.3888667   0.4810867   0.0000000), wk =   0.0219780
        k(   52) = (   0.3833100   0.4907073   0.0000000), wk =   0.0219780
        k(   53) = (   0.3777533   0.5003279   0.0000000), wk =   0.0219780
        k(   54) = (   0.3721967   0.5099485   0.0000000), wk =   0.0219780
        k(   55) = (   0.3666400   0.5195691   0.0000000), wk =   0.0219780
        k(   56) = (   0.3610833   0.5291896   0.0000000), wk =   0.0219780
        k(   57) = (   0.3555267   0.5388102   0.0000000), wk =   0.0219780
        k(   58) = (   0.3499700   0.5484308   0.0000000), wk =   0.0219780
        k(   59) = (   0.3444133   0.5580514   0.0000000), wk =   0.0219780
        k(   60) = (   0.3388567   0.5676720   0.0000000), wk =   0.0219780
        k(   61) = (   0.3333000   0.5772925   0.0000000), wk =   0.0219780
        k(   62) = (   0.3221900   0.5580494   0.0053889), wk =   0.0219780
        k(   63) = (   0.3110800   0.5388064   0.0107778), wk =   0.0219780
        k(   64) = (   0.2999700   0.5195633   0.0161667), wk =   0.0219780
        k(   65) = (   0.2888600   0.5003202   0.0215556), wk =   0.0219780
        k(   66) = (   0.2777500   0.4810771   0.0269444), wk =   0.0219780
        k(   67) = (   0.2666400   0.4618340   0.0323333), wk =   0.0219780
        k(   68) = (   0.2555300   0.4425909   0.0377222), wk =   0.0219780
        k(   69) = (   0.2444200   0.4233479   0.0431111), wk =   0.0219780
        k(   70) = (   0.2333100   0.4041048   0.0485000), wk =   0.0219780
        k(   71) = (   0.2222000   0.3848617   0.0538889), wk =   0.0219780
        k(   72) = (   0.2110900   0.3656186   0.0592778), wk =   0.0219780
        k(   73) = (   0.1999800   0.3463755   0.0646667), wk =   0.0219780
        k(   74) = (   0.1888700   0.3271324   0.0700556), wk =   0.0219780
        k(   75) = (   0.1777600   0.3078894   0.0754444), wk =   0.0219780
        k(   76) = (   0.1666500   0.2886463   0.0808333), wk =   0.0219780
        k(   77) = (   0.1555400   0.2694032   0.0862222), wk =   0.0219780
        k(   78) = (   0.1444300   0.2501601   0.0916111), wk =   0.0219780
        k(   79) = (   0.1333200   0.2309170   0.0970000), wk =   0.0219780
        k(   80) = (   0.1222100   0.2116739   0.1023889), wk =   0.0219780
        k(   81) = (   0.1111000   0.1924308   0.1077778), wk =   0.0219780
        k(   82) = (   0.0999900   0.1731878   0.1131667), wk =   0.0219780
        k(   83) = (   0.0888800   0.1539447   0.1185556), wk =   0.0219780
        k(   84) = (   0.0777700   0.1347016   0.1239444), wk =   0.0219780
        k(   85) = (   0.0666600   0.1154585   0.1293333), wk =   0.0219780
        k(   86) = (   0.0555500   0.0962154   0.1347222), wk =   0.0219780
        k(   87) = (   0.0444400   0.0769723   0.1401111), wk =   0.0219780
        k(   88) = (   0.0333300   0.0577293   0.1455000), wk =   0.0219780
        k(   89) = (   0.0222200   0.0384862   0.1508889), wk =   0.0219780
        k(   90) = (   0.0111100   0.0192431   0.1562778), wk =   0.0219780
        k(   91) = (   0.0000000   0.0000000   0.1616667), wk =   0.0219780

     Dense  grid:    66219 G-vectors     FFT dimensions: (  40,  40, 120)

     Smooth grid:    23461 G-vectors     FFT dimensions: (  25,  25,  80)

     Estimated max dynamical RAM per process >     214.92 MB

     The potential is recalculated from file :
     /home/jesus/Documentos/Nanociencia_DFT/test.save/charge-density


     negative rho (up, down):  1.872E-06 0.000E+00
     Starting wfcs are    8 randomized atomic wfcs

     Band Structure Calculation
     Davidson diagonalization with overlap
     c_bands:  1 eigenvalues not converged
     c_bands:  1 eigenvalues not converged

     ethr =  1.25E-08,  avg # of iterations = 47.0

     total cpu time spent up to now is       60.6 secs

     End of band structure calculation

          k = 0.0000 0.0000 0.0000 (  2919 PWs)   bands (ev):

   -12.7400  -4.9205  -2.9347  -2.9347   0.0769   0.7090   1.2668   1.2668

          k = 0.0167 0.0096 0.0000 (  2931 PWs)   bands (ev):

   -12.7368  -4.9182  -2.9646  -2.9409   0.1035   0.7112   1.2644   1.2791

          k = 0.0333 0.0192 0.0000 (  2937 PWs)   bands (ev):

   -12.7272  -4.9115  -3.0507  -2.9592   0.1782   0.7176   1.2593   1.3158

          k = 0.0500 0.0289 0.0000 (  2929 PWs)   bands (ev):

   -12.7111  -4.9008  -3.1834  -2.9889   0.2860   0.7281   1.2584   1.3763

          k = 0.0667 0.0385 0.0000 (  2937 PWs)   bands (ev):

   -12.6886  -4.8868  -3.3513  -3.0289   0.4036   0.7423   1.2755   1.4593

          k = 0.0833 0.0481 0.0000 (  2935 PWs)   bands (ev):

   -12.6598  -4.8710  -3.5427  -3.0779   0.5003   0.7604   1.3326   1.5635

          k = 0.1000 0.0577 0.0000 (  2943 PWs)   bands (ev):

   -12.6245  -4.8564  -3.7468  -3.1345   0.5493   0.7823   1.4495   1.6872

          k = 0.1167 0.0674 0.0000 (  2947 PWs)   bands (ev):

   -12.5830  -4.8492  -3.9511  -3.1970   0.5469   0.8070   1.6255   1.8289

          k = 0.1333 0.0770 0.0000 (  2947 PWs)   bands (ev):

   -12.5351  -4.8631  -4.1377  -3.2641   0.5076   0.8323   1.8437   1.9870

          k = 0.1500 0.0866 0.0000 (  2951 PWs)   bands (ev):

   -12.4810  -4.9238  -4.2776  -3.3344   0.4460   0.8564   2.0858   2.1597

          k = 0.1667 0.0962 0.0000 (  2959 PWs)   bands (ev):

   -12.4207  -5.0537  -4.3460  -3.4066   0.3714   0.8771   2.3343   2.3456

          k = 0.1833 0.1058 0.0000 (  2953 PWs)   bands (ev):

   -12.3543  -5.2419  -4.3522  -3.4798   0.2894   0.8916   2.5433   2.5550

          k = 0.2000 0.1155 0.0000 (  2949 PWs)   bands (ev):

   -12.2819  -5.4619  -4.3211  -3.5528   0.2036   0.8959   2.6591   2.7511

          k = 0.2167 0.1251 0.0000 (  2957 PWs)   bands (ev):

   -12.2035  -5.6968  -4.2688  -3.6250   0.1162   0.8857   2.6438   2.9673

          k = 0.2333 0.1347 0.0000 (  2951 PWs)   bands (ev):

   -12.1193  -5.9379  -4.2029  -3.6956   0.0290   0.8560   2.5991   3.1903

          k = 0.2500 0.1443 0.0000 (  2963 PWs)   bands (ev):

   -12.0294  -6.1811  -4.1272  -3.7640  -0.0569   0.8030   2.5618   3.4175

          k = 0.2667 0.1540 0.0000 (  2951 PWs)   bands (ev):

   -11.9340  -6.4237  -4.0437  -3.8297  -0.1407   0.7251   2.5451   3.6460

          k = 0.2833 0.1636 0.0000 (  2941 PWs)   bands (ev):

   -11.8334  -6.6641  -3.9536  -3.8922  -0.2218   0.6234   2.5533   3.8713

          k = 0.3000 0.1732 0.0000 (  2939 PWs)   bands (ev):

   -11.7279  -6.9011  -3.9513  -3.8578  -0.3000   0.5018   2.5863   4.0873

          k = 0.3167 0.1828 0.0000 (  2935 PWs)   bands (ev):

   -11.6177  -7.1337  -4.0065  -3.7572  -0.3752   0.3657   2.6417   4.2542

          k = 0.3333 0.1925 0.0000 (  2929 PWs)   bands (ev):

   -11.5035  -7.3608  -4.0577  -3.6524  -0.4477   0.2208   2.7160   4.3739

          k = 0.3500 0.2021 0.0000 (  2929 PWs)   bands (ev):

   -11.3857  -7.5814  -4.1045  -3.5445  -0.5185   0.0729   2.8060   4.4939

          k = 0.3667 0.2117 0.0000 (  2919 PWs)   bands (ev):

   -11.2655  -7.7943  -4.1469  -3.4344  -0.5892  -0.0718   2.9087   4.6103

          k = 0.3833 0.2213 0.0000 (  2923 PWs)   bands (ev):

   -11.1439  -7.9982  -4.1846  -3.3236  -0.6626  -0.2068   3.0213   4.7163

          k = 0.4000 0.2309 0.0000 (  2933 PWs)   bands (ev):

   -11.0227  -8.1909  -4.2175  -3.2138  -0.7418  -0.3248   3.1414   4.7672

          k = 0.4167 0.2406 0.0000 (  2935 PWs)   bands (ev):

   -10.9045  -8.3700  -4.2455  -3.1077  -0.8286  -0.4203   3.2659   4.7835

          k = 0.4333 0.2502 0.0000 (  2933 PWs)   bands (ev):

   -10.7929  -8.5315  -4.2686  -3.0086  -0.9199  -0.4917   3.3910   4.7904

          k = 0.4500 0.2598 0.0000 (  2929 PWs)   bands (ev):

   -10.6931  -8.6702  -4.2865  -2.9213  -1.0074  -0.5417   3.5113   4.7621

          k = 0.4667 0.2694 0.0000 (  2930 PWs)   bands (ev):

   -10.6121  -8.7790  -4.2994  -2.8515  -1.0807  -0.5744   3.6173   4.6855

          k = 0.4833 0.2791 0.0000 (  2932 PWs)   bands (ev):

   -10.5584  -8.8494  -4.3072  -2.8060  -1.1296  -0.5929   3.6944   4.6216

          k = 0.5000 0.2887 0.0000 (  2946 PWs)   bands (ev):

   -10.5395  -8.8739  -4.3098  -2.7901  -1.1469  -0.5989   3.7234   4.5963

          k = 0.4944 0.2983 0.0000 (  2930 PWs)   bands (ev):

   -10.5384  -8.8740  -4.3178  -2.7882  -1.1470  -0.5887   3.7213   4.5971

          k = 0.4889 0.3079 0.0000 (  2926 PWs)   bands (ev):

   -10.5349  -8.8742  -4.3414  -2.7826  -1.1475  -0.5585   3.7150   4.5996

          k = 0.4833 0.3175 0.0000 (  2926 PWs)   bands (ev):

   -10.5292  -8.8746  -4.3798  -2.7735  -1.1482  -0.5089   3.7038   4.6037

          k = 0.4778 0.3272 0.0000 (  2930 PWs)   bands (ev):

   -10.5212  -8.8751  -4.4313  -2.7615  -1.1493  -0.4409   3.6864   4.6044

          k = 0.4722 0.3368 0.0000 (  2934 PWs)   bands (ev):

   -10.5110  -8.8760  -4.4943  -2.7467  -1.1508  -0.3560   3.6614   4.5349

          k = 0.4667 0.3464 0.0000 (  2934 PWs)   bands (ev):

   -10.4984  -8.8772  -4.5670  -2.7296  -1.1528  -0.2555   3.6272   4.4702

          k = 0.4611 0.3560 0.0000 (  2930 PWs)   bands (ev):

   -10.4836  -8.8788  -4.6473  -2.7105  -1.1554  -0.1409   3.5825   4.4144

          k = 0.4555 0.3656 0.0000 (  2928 PWs)   bands (ev):

   -10.4664  -8.8811  -4.7336  -2.6894  -1.1587  -0.0137   3.5267   4.3701

          k = 0.4500 0.3753 0.0000 (  2932 PWs)   bands (ev):

   -10.4470  -8.8841  -4.8243  -2.6666  -1.1629   0.1247   3.4604   4.3379

          k = 0.4444 0.3849 0.0000 (  2936 PWs)   bands (ev):

   -10.4254  -8.8881  -4.9179  -2.6421  -1.1681   0.2732   3.3853   4.3173

          k = 0.4389 0.3945 0.0000 (  2932 PWs)   bands (ev):

   -10.4014  -8.8931  -5.0132  -2.6160  -1.1744   0.4306   3.3035   4.3071

          k = 0.4333 0.4041 0.0000 (  2928 PWs)   bands (ev):

   -10.3752  -8.8995  -5.1091  -2.5881  -1.1821   0.5959   3.2173   4.3055

          k = 0.4278 0.4137 0.0000 (  2924 PWs)   bands (ev):

   -10.3467  -8.9075  -5.2044  -2.5584  -1.1914   0.7683   3.1289   4.3110

          k = 0.4222 0.4234 0.0000 (  2926 PWs)   bands (ev):

   -10.3159  -8.9173  -5.2982  -2.5271  -1.2024   0.9469   3.0400   4.3224

          k = 0.4167 0.4330 0.0000 (  2930 PWs)   bands (ev):

   -10.2829  -8.9292  -5.3898  -2.4940  -1.2155   1.1313   2.9521   4.3385

          k = 0.4111 0.4426 0.0000 (  2926 PWs)   bands (ev):

   -10.2476  -8.9435  -5.4783  -2.4590  -1.2307   1.3207   2.8665   4.3585

          k = 0.4055 0.4522 0.0000 (  2924 PWs)   bands (ev):

   -10.2101  -8.9605  -5.5631  -2.4222  -1.2484   1.5146   2.7840   4.3815

          k = 0.4000 0.4618 0.0000 (  2924 PWs)   bands (ev):

   -10.1703  -8.9805  -5.6435  -2.3836  -1.2688   1.7126   2.7055   4.4070

          k = 0.3944 0.4715 0.0000 (  2920 PWs)   bands (ev):

   -10.1282  -9.0038  -5.7189  -2.3431  -1.2922   1.9142   2.6317   4.4342

          k = 0.3889 0.4811 0.0000 (  2924 PWs)   bands (ev):

   -10.0839  -9.0305  -5.7888  -2.3008  -1.3186   2.1189   2.5632   4.4622

          k = 0.3833 0.4907 0.0000 (  2916 PWs)   bands (ev):

   -10.0373  -9.0611  -5.8528  -2.2565  -1.3483   2.3264   2.5003   4.4901

          k = 0.3778 0.5003 0.0000 (  2916 PWs)   bands (ev):

    -9.9885  -9.0956  -5.9105  -2.2104  -1.3814   2.4436   2.5359   4.5166

          k = 0.3722 0.5099 0.0000 (  2920 PWs)   bands (ev):

    -9.9375  -9.1341  -5.9616  -2.1623  -1.4180   2.3932   2.7470   4.5398

          k = 0.3666 0.5196 0.0000 (  2920 PWs)   bands (ev):

    -9.8843  -9.1769  -6.0059  -2.1124  -1.4582   2.3495   2.9588   4.5572

          k = 0.3611 0.5292 0.0000 (  2924 PWs)   bands (ev):

    -9.8288  -9.2239  -6.0432  -2.0606  -1.5021   2.3125   3.1699   4.5655

          k = 0.3555 0.5388 0.0000 (  2922 PWs)   bands (ev):

    -9.7711  -9.2750  -6.0735  -2.0068  -1.5495   2.2824   3.3785   4.5110

          k = 0.3500 0.5484 0.0000 (  2932 PWs)   bands (ev):

    -9.7112  -9.3301  -6.0968  -1.9512  -1.6005   2.2591   3.5805   4.4402

          k = 0.3444 0.5581 0.0000 (  2934 PWs)   bands (ev):

    -9.6490  -9.3891  -6.1132  -1.8938  -1.6548   2.2426   3.7667   4.3748

          k = 0.3389 0.5677 0.0000 (  2926 PWs)   bands (ev):

    -9.5847  -9.4518  -6.1229  -1.8345  -1.7124   2.2328   3.9122   4.3373

          k = 0.3333 0.5773 0.0000 (  2922 PWs)   bands (ev):

    -9.5185  -9.5175  -6.1261  -1.7737  -1.7726   2.2296   3.9668   4.3717

          k = 0.3222 0.5580 0.0054 (  2929 PWs)   bands (ev):

    -9.6594  -9.3780  -6.1139  -1.9029  -1.6451   2.2421   3.8543   4.2040

          k = 0.3111 0.5388 0.0108 (  2913 PWs)   bands (ev):

    -9.8102  -9.2297  -6.0790  -2.0416  -1.5104   2.2779   3.6702   4.0182

          k = 0.3000 0.5196 0.0162 (  2912 PWs)   bands (ev):

    -9.9680  -9.0727  -6.0238  -2.1874  -1.3689   2.3348   3.4751   3.8264

          k = 0.2889 0.5003 0.0216 (  2918 PWs)   bands (ev):

   -10.1307  -8.9073  -5.9507  -2.3381  -1.2211   2.4097   3.2800   3.6355

          k = 0.2778 0.4811 0.0269 (  2918 PWs)   bands (ev):

   -10.2958  -8.7334  -5.8619  -2.4919  -1.0674   2.4988   3.0887   3.4503

          k = 0.2666 0.4618 0.0323 (  2923 PWs)   bands (ev):

   -10.4617  -8.5512  -5.7594  -2.6470  -0.9083   2.5949   2.9034   3.2778

          k = 0.2555 0.4426 0.0377 (  2921 PWs)   bands (ev):

   -10.6267  -8.3608  -5.6450  -2.8018  -0.7445   2.6789   2.7252   3.1363

          k = 0.2444 0.4233 0.0431 (  2918 PWs)   bands (ev):

   -10.7896  -8.1623  -5.5202  -2.9550  -0.5771   2.5549   2.6930   3.0821

          k = 0.2333 0.4041 0.0485 (  2922 PWs)   bands (ev):

   -10.9491  -7.9559  -5.3864  -3.1055  -0.4072   2.3932   2.6002   3.1500

          k = 0.2222 0.3849 0.0539 (  2920 PWs)   bands (ev):

   -11.1046  -7.7417  -5.2451  -3.2522  -0.2364   2.2407   2.4618   3.2083

          k = 0.2111 0.3656 0.0593 (  2925 PWs)   bands (ev):

   -11.2551  -7.5201  -5.0974  -3.3943  -0.0667   2.0976   2.3138   3.0762

          k = 0.2000 0.3464 0.0647 (  2931 PWs)   bands (ev):

   -11.4001  -7.2913  -4.9447  -3.5310   0.0991   1.9643   2.1666   2.9610

          k = 0.1889 0.3271 0.0701 (  2932 PWs)   bands (ev):

   -11.5391  -7.0556  -4.7882  -3.6616   0.2576   1.8412   2.0235   2.8673

          k = 0.1778 0.3079 0.0754 (  2933 PWs)   bands (ev):

   -11.6717  -6.8136  -4.6291  -3.7856   0.4048   1.7283   1.8859   2.7988

          k = 0.1667 0.2886 0.0808 (  2928 PWs)   bands (ev):

   -11.7975  -6.5658  -4.4689  -3.9020   0.5360   1.6257   1.7542   2.7593

          k = 0.1555 0.2694 0.0862 (  2936 PWs)   bands (ev):

   -11.9162  -6.3132  -4.3089  -4.0102   0.6467   1.5336   1.6288   2.7518

          k = 0.1444 0.2502 0.0916 (  2931 PWs)   bands (ev):

   -12.0275  -6.0570  -4.1506  -4.1089   0.7338   1.4518   1.5095   2.7762

          k = 0.1333 0.2309 0.0970 (  2943 PWs)   bands (ev):

   -12.1312  -5.7996  -4.1962  -3.9955   0.7968   1.3805   1.3961   2.8248

          k = 0.1222 0.2117 0.1024 (  2942 PWs)   bands (ev):

   -12.2272  -5.5449  -4.2688  -3.8454   0.8372   1.2880   1.3201   2.8709

          k = 0.1111 0.1924 0.1078 (  2941 PWs)   bands (ev):

   -12.3153  -5.3011  -4.3193  -3.7019   0.8587   1.1843   1.2714   2.8605

          k = 0.1000 0.1732 0.1132 (  2947 PWs)   bands (ev):

   -12.3954  -5.0858  -4.3312  -3.5666   0.8650   1.0833   1.2353   2.7943

          k = 0.0889 0.1539 0.1186 (  2945 PWs)   bands (ev):

   -12.4673  -4.9320  -4.2732  -3.4411   0.8596   0.9827   1.2125   2.6617

          k = 0.0778 0.1347 0.1239 (  2939 PWs)   bands (ev):

   -12.5309  -4.8612  -4.1260  -3.3271   0.8462   0.8787   1.2024   2.3348

          k = 0.0667 0.1155 0.1293 (  2945 PWs)   bands (ev):

   -12.5862  -4.8481  -3.9184  -3.2258   0.7659   0.8281   1.2032   2.0342

          k = 0.0556 0.0962 0.1347 (  2944 PWs)   bands (ev):

   -12.6331  -4.8591  -3.6890  -3.1384   0.6389   0.8084   1.2121   1.7778

          k = 0.0444 0.0770 0.1401 (  2931 PWs)   bands (ev):

   -12.6715  -4.8771  -3.4622  -3.0658   0.4961   0.7896   1.2258   1.5756

          k = 0.0333 0.0577 0.1455 (  2920 PWs)   bands (ev):

   -12.7015  -4.8947  -3.2556  -3.0087   0.3460   0.7736   1.2409   1.4301

          k = 0.0222 0.0385 0.1509 (  2915 PWs)   bands (ev):

   -12.7229  -4.9087  -3.0868  -2.9677   0.2093   0.7614   1.2543   1.3357

          k = 0.0111 0.0192 0.1563 (  2912 PWs)   bands (ev):

   -12.7357  -4.9175  -2.9744  -2.9430   0.1122   0.7538   1.2635   1.2834

          k = 0.0000 0.0000 0.1617 (  2908 PWs)   bands (ev):

   -12.7400  -4.9205  -2.9347  -2.9347   0.0769   0.7513   1.2668   1.2668

     Writing output data file /home/jesus/Documentos/Nanociencia_DFT/test.save/
 
     init_run     :      1.05s CPU      1.31s WALL (       1 calls)
     electrons    :     54.73s CPU     57.23s WALL (       1 calls)

     Called by init_run:
     wfcinit      :      0.00s CPU      0.00s WALL (       1 calls)
     potinit      :      0.19s CPU      0.23s WALL (       1 calls)
     hinit0       :      0.41s CPU      0.44s WALL (       1 calls)

     Called by electrons:
     c_bands      :     54.73s CPU     57.23s WALL (       1 calls)
     v_of_rho     :      0.17s CPU      0.20s WALL (       1 calls)
     newd         :      0.34s CPU      0.54s WALL (       1 calls)

     Called by c_bands:
     init_us_2    :      0.14s CPU      0.16s WALL (      91 calls)
     cegterg      :     51.12s CPU     51.99s WALL (     261 calls)

     Called by *egterg:
     cdiaghg      :      0.79s CPU      0.81s WALL (    4369 calls)
     h_psi        :     44.55s CPU     45.36s WALL (    4630 calls)
     s_psi        :      1.91s CPU      1.94s WALL (    4630 calls)
     g_psi        :      0.24s CPU      0.25s WALL (    4278 calls)

     Called by h_psi:
     h_psi:calbec :      2.12s CPU      2.16s WALL (    4630 calls)
     vloc_psi     :     40.15s CPU     40.88s WALL (    4630 calls)
     add_vuspsi   :      2.00s CPU      2.05s WALL (    4630 calls)

     General routines
     calbec       :      2.10s CPU      2.14s WALL (    4630 calls)
     fft          :      0.07s CPU      0.09s WALL (      13 calls)
     ffts         :      0.00s CPU      0.00s WALL (       1 calls)
     fftw         :     33.07s CPU     33.70s WALL (   37708 calls)
     interpolate  :      0.01s CPU      0.01s WALL (       1 calls)
     davcio       :      0.05s CPU      1.54s WALL (     182 calls)
 
     Parallel routines
 
     PWSCF        :     57.78s CPU   1m 0.89s WALL

 
   This run was terminated on:   1: 3: 0  30Mar2021            

=------------------------------------------------------------------------------=
   JOB DONE.
=------------------------------------------------------------------------------=
