
     Program PWSCF v.6.6 starts on 17Mar2021 at 11: 0:15 

     This program is part of the open-source Quantum ESPRESSO suite
     for quantum simulation of materials; please cite
         "P. Giannozzi et al., J. Phys.:Condens. Matter 21 395502 (2009);
         "P. Giannozzi et al., J. Phys.:Condens. Matter 29 465901 (2017);
          URL http://www.quantum-espresso.org", 
     in publications or presentations arising from this work. More details at
     http://www.quantum-espresso.org/quote

     Parallel version (MPI), running on     1 processors

     MPI processes distributed on     1 nodes
     Fft bands division:     nmany     =       1
     Waiting for input...
     Reading input from standard input
Warning: card &CELL ignored
Warning: card   CELL_DYNAMICS='BFGS', ignored
Warning: card   CELL_DOFREE='ALL', ignored
Warning: card / ignored

     Current dimensions of program PWSCF are:
     Max number of different atomic species (ntypx) = 10
     Max number of k-points (npk) =  40000
     Max angular momentum in pseudopotentials (lmaxx) =  3

     File /home/jesus/Documentos/Nanociencia_DFT/test.update deleted, as requested

     File /home/jesus/Documentos/Nanociencia_DFT/test.bfgs deleted, as requested

     Subspace diagonalization in iterative solution of the eigenvalue problem:
     a serial algorithm will be used

 
     G-vector sticks info
     --------------------
     sticks:   dense  smooth     PW     G-vecs:    dense   smooth      PW
     Sum         649     313     97                48003    16903    2863
 


     bravais-lattice index     =            4
     lattice parameter (alat)  =       6.2361  a.u.
     unit-cell volume          =     763.7239 (a.u.)^3
     number of atoms/cell      =            2
     number of atomic types    =            1
     number of electrons       =         8.00
     number of Kohn-Sham states=            8
     kinetic-energy cutoff     =      30.0000  Ry
     charge density cutoff     =     240.0000  Ry
     convergence threshold     =      1.0E-06
     mixing beta               =       0.7000
     number of iterations used =            8  plain     mixing
     Exchange-correlation= PBE
                           (   1   4   3   4   0   0   0)
     nstep                     =            1


     celldm(1)=   6.236096  celldm(2)=   0.000000  celldm(3)=   3.636364
     celldm(4)=   0.000000  celldm(5)=   0.000000  celldm(6)=   0.000000

     crystal axes: (cart. coord. in units of alat)
               a(1) = (   1.000000   0.000000   0.000000 )  
               a(2) = (  -0.500000   0.866025   0.000000 )  
               a(3) = (   0.000000   0.000000   3.636364 )  

     reciprocal axes: (cart. coord. in units 2 pi/alat)
               b(1) = (  1.000000  0.577350  0.000000 )  
               b(2) = (  0.000000  1.154701  0.000000 )  
               b(3) = (  0.000000  0.000000  0.275000 )  


     PseudoPot. # 1 for Si read from file:
     /home/jesus/Documentos/Nanociencia_DFT/pseudopotenciales/Si.pbe-n-rrkjus_psl.1.0.0.UPF
     MD5 check sum: fa25574f73a70a4139f2adfbefec430c
     Pseudo is Ultrasoft + core correction, Zval =  4.0
     Generated using "atomic" code by A. Dal Corso v.6.3
     Using radial grid of 1141 points,  6 beta functions with: 
                l(1) =   0
                l(2) =   0
                l(3) =   1
                l(4) =   1
                l(5) =   2
                l(6) =   2
     Q(r) pseudized with 0 coefficients 


     atomic species   valence    mass     pseudopotential
        Si             4.00    28.08550     Si( 1.00)

      6 Sym. Ops. (no inversion) found



   Cartesian axes

     site n.     atom                  positions (alat units)
         1           Si  tau(   1) = (  -0.0000000   0.5773503   1.7886518  )
         2           Si  tau(   2) = (   0.5000000   0.2886751   1.9385701  )

     number of k points=    44  Methfessel-Paxton smearing, width (Ry)=  0.0100
                       cart. coord. in units 2pi/alat
        k(    1) = (   0.0000000   0.0000000   0.0000000), wk =   0.0058309
        k(    2) = (   0.0000000   0.0000000   0.0392857), wk =   0.0116618
        k(    3) = (   0.0000000   0.0000000   0.0785714), wk =   0.0116618
        k(    4) = (   0.0000000   0.0000000   0.1178571), wk =   0.0116618
        k(    5) = (   0.0000000   0.1649572   0.0000000), wk =   0.0349854
        k(    6) = (   0.0000000   0.1649572   0.0392857), wk =   0.0349854
        k(    7) = (   0.0000000   0.1649572   0.0785714), wk =   0.0349854
        k(    8) = (   0.0000000   0.1649572   0.1178571), wk =   0.0349854
        k(    9) = (   0.0000000   0.3299144   0.0000000), wk =   0.0349854
        k(   10) = (   0.0000000   0.3299144   0.0392857), wk =   0.0349854
        k(   11) = (   0.0000000   0.3299144   0.0785714), wk =   0.0349854
        k(   12) = (   0.0000000   0.3299144   0.1178571), wk =   0.0349854
        k(   13) = (   0.0000000   0.4948717   0.0000000), wk =   0.0349854
        k(   14) = (   0.0000000   0.4948717   0.0392857), wk =   0.0349854
        k(   15) = (   0.0000000   0.4948717   0.0785714), wk =   0.0349854
        k(   16) = (   0.0000000   0.4948717   0.1178571), wk =   0.0349854
        k(   17) = (   0.1428571   0.2474358   0.0000000), wk =   0.0349854
        k(   18) = (   0.1428571   0.2474358   0.0392857), wk =   0.0699708
        k(   19) = (   0.1428571   0.2474358   0.0785714), wk =   0.0699708
        k(   20) = (   0.1428571   0.2474358   0.1178571), wk =   0.0699708
        k(   21) = (   0.1428571   0.4123930   0.0000000), wk =   0.0699708
        k(   22) = (   0.1428571   0.4123930   0.0392857), wk =   0.0699708
        k(   23) = (   0.1428571   0.4123930   0.0785714), wk =   0.0699708
        k(   24) = (   0.1428571   0.4123930   0.1178571), wk =   0.0699708
        k(   25) = (   0.1428571   0.5773503   0.0000000), wk =   0.0349854
        k(   26) = (   0.1428571   0.5773503   0.0392857), wk =   0.0699708
        k(   27) = (   0.1428571   0.5773503   0.0785714), wk =   0.0699708
        k(   28) = (   0.1428571   0.5773503   0.1178571), wk =   0.0699708
        k(   29) = (   0.2857143   0.4948717   0.0000000), wk =   0.0349854
        k(   30) = (   0.2857143   0.4948717   0.0392857), wk =   0.0699708
        k(   31) = (   0.2857143   0.4948717   0.0785714), wk =   0.0699708
        k(   32) = (   0.2857143   0.4948717   0.1178571), wk =   0.0699708
        k(   33) = (   0.0000000  -0.1649572   0.0392857), wk =   0.0349854
        k(   34) = (   0.0000000  -0.1649572   0.0785714), wk =   0.0349854
        k(   35) = (   0.0000000  -0.1649572   0.1178571), wk =   0.0349854
        k(   36) = (   0.0000000  -0.3299144   0.0392857), wk =   0.0349854
        k(   37) = (   0.0000000  -0.3299144   0.0785714), wk =   0.0349854
        k(   38) = (   0.0000000  -0.3299144   0.1178571), wk =   0.0349854
        k(   39) = (   0.0000000  -0.4948717   0.0392857), wk =   0.0349854
        k(   40) = (   0.0000000  -0.4948717   0.0785714), wk =   0.0349854
        k(   41) = (   0.0000000  -0.4948717   0.1178571), wk =   0.0349854
        k(   42) = (  -0.1428571  -0.4123930   0.0392857), wk =   0.0699708
        k(   43) = (  -0.1428571  -0.4123930   0.0785714), wk =   0.0699708
        k(   44) = (  -0.1428571  -0.4123930   0.1178571), wk =   0.0699708

     Dense  grid:    48003 G-vectors     FFT dimensions: (  32,  32, 120)

     Smooth grid:    16903 G-vectors     FFT dimensions: (  24,  24,  80)

     Estimated max dynamical RAM per process >     181.75 MB

     Initial potential from superposition of free atoms

     starting charge    7.99888, renormalised to    8.00000

     negative rho (up, down):  1.774E-06 0.000E+00
     Starting wfcs are    8 randomized atomic wfcs

     total cpu time spent up to now is        2.0 secs

     Self-consistent Calculation

     iteration #  1     ecut=    30.00 Ry     beta= 0.70
     Davidson diagonalization with overlap
     ethr =  1.00E-02,  avg # of iterations =  5.0

     total cpu time spent up to now is        4.5 secs

     total energy              =     -22.50501976 Ry
     estimated scf accuracy    <       0.19829267 Ry

     iteration #  2     ecut=    30.00 Ry     beta= 0.70
     Davidson diagonalization with overlap
     ethr =  2.48E-03,  avg # of iterations =  2.8

     negative rho (up, down):  5.869E-08 0.000E+00

     total cpu time spent up to now is        6.6 secs

     total energy              =     -22.54097786 Ry
     estimated scf accuracy    <       0.00351839 Ry

     iteration #  3     ecut=    30.00 Ry     beta= 0.70
     Davidson diagonalization with overlap
     ethr =  4.40E-05,  avg # of iterations =  8.1

     negative rho (up, down):  1.221E-06 0.000E+00

     total cpu time spent up to now is        9.3 secs

     total energy              =     -22.54155567 Ry
     estimated scf accuracy    <       0.00021699 Ry

     iteration #  4     ecut=    30.00 Ry     beta= 0.70
     Davidson diagonalization with overlap
     c_bands:  1 eigenvalues not converged
     c_bands:  1 eigenvalues not converged
     ethr =  2.71E-06,  avg # of iterations =  7.0

     negative rho (up, down):  1.260E-06 0.000E+00

     total cpu time spent up to now is       11.8 secs

     total energy              =     -22.54158122 Ry
     estimated scf accuracy    <       0.00006594 Ry

     iteration #  5     ecut=    30.00 Ry     beta= 0.70
     Davidson diagonalization with overlap
     c_bands:  1 eigenvalues not converged
     ethr =  8.24E-07,  avg # of iterations =  2.3

     negative rho (up, down):  1.302E-06 0.000E+00

     total cpu time spent up to now is       13.6 secs

     total energy              =     -22.54158873 Ry
     estimated scf accuracy    <       0.00000424 Ry

     iteration #  6     ecut=    30.00 Ry     beta= 0.70
     Davidson diagonalization with overlap
     ethr =  5.29E-08,  avg # of iterations =  2.4

     negative rho (up, down):  1.298E-06 0.000E+00

     total cpu time spent up to now is       15.6 secs

     End of self-consistent calculation

          k = 0.0000 0.0000 0.0000 (  2163 PWs)   bands (ev):

   -13.6728  -5.2141  -0.7151  -0.7151   1.1313   3.4308   3.4308   3.5864

          k = 0.0000 0.0000 0.0393 (  2169 PWs)   bands (ev):

   -13.6728  -5.2141  -0.7151  -0.7151   1.1370   3.3522   3.4308   3.4308

          k = 0.0000 0.0000 0.0786 (  2164 PWs)   bands (ev):

   -13.6728  -5.2141  -0.7151  -0.7151   1.1503   3.1349   3.4308   3.4308

          k = 0.0000 0.0000 0.1179 (  2140 PWs)   bands (ev):

   -13.6728  -5.2141  -0.7151  -0.7151   1.1614   3.0191   3.4308   3.4308

          k = 0.0000 0.1650 0.0000 (  2137 PWs)   bands (ev):

   -13.3304  -4.8825  -2.4416  -1.3701   1.4424   2.9974   3.9823   4.1031

          k = 0.0000 0.1650 0.0393 (  2151 PWs)   bands (ev):

   -13.3304  -4.8825  -2.4416  -1.3702   1.4476   2.9950   3.7458   4.4059

          k = 0.0000 0.1650 0.0786 (  2139 PWs)   bands (ev):

   -13.3304  -4.8825  -2.4416  -1.3701   1.4595   2.9936   3.5293   4.7080

          k = 0.0000 0.1650 0.1179 (  2137 PWs)   bands (ev):

   -13.3304  -4.8825  -2.4416  -1.3701   1.4692   2.9947   3.4114   4.7080

          k = 0.0000 0.3299 0.0000 (  2133 PWs)   bands (ev):

   -12.3195  -5.3757  -3.9025  -2.3017   1.9290   2.1775   3.7967   5.1042

          k = 0.0000 0.3299 0.0393 (  2128 PWs)   bands (ev):

   -12.3195  -5.3757  -3.9025  -2.3017   1.9299   2.1780   3.8168   4.8561

          k = 0.0000 0.3299 0.0786 (  2122 PWs)   bands (ev):

   -12.3195  -5.3757  -3.9025  -2.3017   1.9316   2.1803   3.8468   4.6350

          k = 0.0000 0.3299 0.1179 (  2119 PWs)   bands (ev):

   -12.3195  -5.3757  -3.9025  -2.3017   1.9329   2.1827   3.8642   4.5255

          k = 0.0000 0.4949 0.0000 (  2098 PWs)   bands (ev):

   -10.7526  -8.0369  -2.8310  -2.4115   0.3777   1.4720   4.5080   6.6903

          k = 0.0000 0.4949 0.0393 (  2104 PWs)   bands (ev):

   -10.7526  -8.0369  -2.8310  -2.4115   0.3777   1.4720   4.5148   6.5575

          k = 0.0000 0.4949 0.0786 (  2094 PWs)   bands (ev):

   -10.7526  -8.0369  -2.8310  -2.4115   0.3777   1.4721   4.5271   7.2203

          k = 0.0000 0.4949 0.1179 (  2094 PWs)   bands (ev):

   -10.7526  -8.0369  -2.8310  -2.4115   0.3777   1.4720   4.5354   6.3587

          k = 0.1429 0.2474 0.0000 (  2125 PWs)   bands (ev):

   -12.6528  -4.2472  -4.1684  -2.8897   1.9687   3.7193   4.3916   4.6621

          k = 0.1429 0.2474 0.0393 (  2128 PWs)   bands (ev):

   -12.6528  -4.2472  -4.1684  -2.8897   1.9721   3.7201   4.3260   4.6590

          k = 0.1429 0.2474 0.0786 (  2137 PWs)   bands (ev):

   -12.6528  -4.2473  -4.1684  -2.8897   1.9800   3.7222   4.2059   4.6543

          k = 0.1429 0.2474 0.1179 (  2131 PWs)   bands (ev):

   -12.6528  -4.2473  -4.1684  -2.8897   1.9863   3.7244   4.1264   4.6524

          k = 0.1429 0.4124 0.0000 (  2113 PWs)   bands (ev):

   -11.3392  -6.6833  -4.0777  -2.9581   1.4584   3.5396   4.0610   5.2812

          k = 0.1429 0.4124 0.0393 (  2112 PWs)   bands (ev):

   -11.3392  -6.6833  -4.0777  -2.9581   1.4584   3.5397   4.0705   5.2602

          k = 0.1429 0.4124 0.0786 (  2113 PWs)   bands (ev):

   -11.3392  -6.6833  -4.0777  -2.9581   1.4585   3.5397   4.0873   5.2455

          k = 0.1429 0.4124 0.1179 (  2104 PWs)   bands (ev):

   -11.3392  -6.6833  -4.0777  -2.9581   1.4587   3.5397   4.0989   5.2510

          k = 0.1429 0.5774 0.0000 (  2104 PWs)   bands (ev):

    -9.9298  -8.5935  -4.4269  -1.6671  -0.1404   3.3214   4.5717   5.9141

          k = 0.1429 0.5774 0.0393 (  2100 PWs)   bands (ev):

    -9.9298  -8.5935  -4.4269  -1.6671  -0.1404   3.3214   4.5718   5.9180

          k = 0.1429 0.5774 0.0786 (  2113 PWs)   bands (ev):

    -9.9298  -8.5935  -4.4269  -1.6672  -0.1404   3.3213   4.5721   5.9271

          k = 0.1429 0.5774 0.1179 (  2113 PWs)   bands (ev):

    -9.9298  -8.5935  -4.4269  -1.6672  -0.1404   3.3213   4.5724   5.9336

          k = 0.2857 0.4949 0.0000 (  2112 PWs)   bands (ev):

    -9.8153  -7.9269  -5.9662  -1.5141   0.2598   3.3214   5.6473   5.9135

          k = 0.2857 0.4949 0.0393 (  2102 PWs)   bands (ev):

    -9.8153  -7.9268  -5.9662  -1.5141   0.2598   3.3214   5.6523   5.9142

          k = 0.2857 0.4949 0.0786 (  2112 PWs)   bands (ev):

    -9.8153  -7.9268  -5.9662  -1.5141   0.2598   3.3213   5.6638   5.9157

          k = 0.2857 0.4949 0.1179 (  2130 PWs)   bands (ev):

    -9.8153  -7.9269  -5.9662  -1.5142   0.2598   3.3212   5.6733   5.9170

          k = 0.0000-0.1650 0.0393 (  2151 PWs)   bands (ev):

   -13.3304  -4.8825  -2.4416  -1.3702   1.4476   2.9994   3.7230   4.4381

          k = 0.0000-0.1650 0.0786 (  2139 PWs)   bands (ev):

   -13.3304  -4.8825  -2.4416  -1.3701   1.4594   3.0001   3.5120   4.7080

          k = 0.0000-0.1650 0.1179 (  2137 PWs)   bands (ev):

   -13.3304  -4.8825  -2.4416  -1.3701   1.4692   2.9981   3.4045   4.7080

          k = 0.0000-0.3299 0.0393 (  2128 PWs)   bands (ev):

   -12.3195  -5.3757  -3.9025  -2.3017   1.9297   2.1792   3.7965   4.9505

          k = 0.0000-0.3299 0.0786 (  2122 PWs)   bands (ev):

   -12.3195  -5.3757  -3.9025  -2.3017   1.9314   2.1818   3.8173   4.7115

          k = 0.0000-0.3299 0.1179 (  2119 PWs)   bands (ev):

   -12.3195  -5.3757  -3.9025  -2.3017   1.9329   2.1833   3.8489   4.5566

          k = 0.0000-0.4949 0.0393 (  2104 PWs)   bands (ev):

   -10.7526  -8.0369  -2.8310  -2.4115   0.3777   1.4720   4.5112   6.7157

          k = 0.0000-0.4949 0.0786 (  2094 PWs)   bands (ev):

   -10.7526  -8.0369  -2.8310  -2.4115   0.3777   1.4721   4.5223   6.5243

          k = 0.0000-0.4949 0.1179 (  2094 PWs)   bands (ev):

   -10.7526  -8.0369  -2.8310  -2.4115   0.3777   1.4721   4.5333   6.3914

          k =-0.1429-0.4124 0.0393 (  2112 PWs)   bands (ev):

   -11.3392  -6.6833  -4.0777  -2.9581   1.4585   3.5395   4.0650   5.2984

          k =-0.1429-0.4124 0.0786 (  2113 PWs)   bands (ev):

   -11.3392  -6.6833  -4.0777  -2.9581   1.4586   3.5395   4.0801   5.3009

          k =-0.1429-0.4124 0.1179 (  2104 PWs)   bands (ev):

   -11.3392  -6.6833  -4.0777  -2.9581   1.4587   3.5396   4.0955   5.2785

     the Fermi energy is    -0.6006 ev

!    total energy              =     -22.54158996 Ry
     estimated scf accuracy    <       0.00000071 Ry
     smearing contrib. (-TS)   =       0.00002377 Ry
     internal energy E=F+TS    =     -22.54161373 Ry

     The total energy is F=E-TS. E is the sum of the following terms:
     one-electron contribution =     -52.37494193 Ry
     hartree contribution      =      27.96874002 Ry
     xc contribution           =     -12.66802790 Ry
     ewald contribution        =      14.53261608 Ry

     convergence has been achieved in   6 iterations

     negative rho (up, down):  1.298E-06 0.000E+00

     Forces acting on atoms (cartesian axes, Ry/au):

     atom    1 type  1   force =     0.00000000    0.00000000   -0.13965203
     atom    2 type  1   force =     0.00000000    0.00000000    0.13965203

     Total force =     0.197498     Total SCF correction =     0.000558

     BFGS Geometry Optimization

     number of scf cycles    =   1
     number of bfgs steps    =   0

     energy   new            =     -22.5415899597 Ry

     new trust radius        =       0.1396520276 bohr

     The maximum number of steps has been reached.

     End of BFGS Geometry Optimization

ATOMIC_POSITIONS (crystal)
Si            0.3333333300        0.6666666700        0.4857208588
Si            0.6666666700        0.3333333300        0.5392651532



     Writing output data file /home/jesus/Documentos/Nanociencia_DFT/test.save/
     NEW-OLD atomic charge density approx. for the potential

     negative rho (up, down):  1.583E-06 0.000E+00

     Writing output data file /home/jesus/Documentos/Nanociencia_DFT/test.save/
 
     init_run     :      1.08s CPU      1.33s WALL (       1 calls)
     electrons    :     12.84s CPU     13.65s WALL (       1 calls)
     update_pot   :      0.11s CPU      0.11s WALL (       1 calls)
     forces       :      0.33s CPU      0.40s WALL (       1 calls)

     Called by init_run:
     wfcinit      :      0.51s CPU      0.53s WALL (       1 calls)
     potinit      :      0.11s CPU      0.11s WALL (       1 calls)
     hinit0       :      0.29s CPU      0.43s WALL (       1 calls)

     Called by electrons:
     c_bands      :      9.80s CPU      9.86s WALL (       6 calls)
     sum_band     :      2.10s CPU      2.44s WALL (       6 calls)
     v_of_rho     :      0.41s CPU      0.43s WALL (       8 calls)
     newd         :      0.86s CPU      1.38s WALL (       8 calls)
     mix_rho      :      0.03s CPU      0.03s WALL (       6 calls)

     Called by c_bands:
     init_us_2    :      0.37s CPU      0.38s WALL (     616 calls)
     cegterg      :      8.14s CPU      8.19s WALL (     264 calls)

     Called by *egterg:
     cdiaghg      :      0.16s CPU      0.17s WALL (    1483 calls)
     h_psi        :      7.49s CPU      7.54s WALL (    1527 calls)
     s_psi        :      0.23s CPU      0.23s WALL (    1527 calls)
     g_psi        :      0.03s CPU      0.03s WALL (    1219 calls)

     Called by h_psi:
     h_psi:calbec :      0.32s CPU      0.32s WALL (    1527 calls)
     vloc_psi     :      6.88s CPU      6.92s WALL (    1527 calls)
     add_vuspsi   :      0.26s CPU      0.26s WALL (    1527 calls)

     General routines
     calbec       :      0.43s CPU      0.43s WALL (    1967 calls)
     fft          :      0.13s CPU      0.26s WALL (     114 calls)
     ffts         :      0.01s CPU      0.01s WALL (      14 calls)
     fftw         :      7.03s CPU      7.07s WALL (   15912 calls)
     interpolate  :      0.02s CPU      0.02s WALL (       8 calls)
     davcio       :      0.00s CPU      0.00s WALL (      44 calls)
 
     Parallel routines
 
     PWSCF        :     15.13s CPU     16.34s WALL

 
   This run was terminated on:  11: 0:31  17Mar2021            

=------------------------------------------------------------------------------=
   JOB DONE.
=------------------------------------------------------------------------------=
