
     Program PWSCF v.6.6 starts on 17Mar2021 at 11: 3:41 

     This program is part of the open-source Quantum ESPRESSO suite
     for quantum simulation of materials; please cite
         "P. Giannozzi et al., J. Phys.:Condens. Matter 21 395502 (2009);
         "P. Giannozzi et al., J. Phys.:Condens. Matter 29 465901 (2017);
          URL http://www.quantum-espresso.org", 
     in publications or presentations arising from this work. More details at
     http://www.quantum-espresso.org/quote

     Parallel version (MPI), running on     1 processors

     MPI processes distributed on     1 nodes
     Fft bands division:     nmany     =       1
     Waiting for input...
     Reading input from standard input
Warning: card &CELL ignored
Warning: card   CELL_DYNAMICS='BFGS', ignored
Warning: card   CELL_DOFREE='ALL', ignored
Warning: card / ignored

     Current dimensions of program PWSCF are:
     Max number of different atomic species (ntypx) = 10
     Max number of k-points (npk) =  40000
     Max angular momentum in pseudopotentials (lmaxx) =  3

     File /home/jesus/Documentos/Nanociencia_DFT/test.update deleted, as requested

     File /home/jesus/Documentos/Nanociencia_DFT/test.bfgs deleted, as requested

     Subspace diagonalization in iterative solution of the eigenvalue problem:
     a serial algorithm will be used

 
     G-vector sticks info
     --------------------
     sticks:   dense  smooth     PW     G-vecs:    dense   smooth      PW
     Sum        1147     583    163                85341    30145    4789
 


     bravais-lattice index     =            4
     lattice parameter (alat)  =       8.3148  a.u.
     unit-cell volume          =    1357.7313 (a.u.)^3
     number of atoms/cell      =            2
     number of atomic types    =            1
     number of electrons       =         8.00
     number of Kohn-Sham states=            8
     kinetic-energy cutoff     =      30.0000  Ry
     charge density cutoff     =     240.0000  Ry
     convergence threshold     =      1.0E-06
     mixing beta               =       0.7000
     number of iterations used =            8  plain     mixing
     Exchange-correlation= PBE
                           (   1   4   3   4   0   0   0)
     nstep                     =            1


     celldm(1)=   8.314795  celldm(2)=   0.000000  celldm(3)=   2.727273
     celldm(4)=   0.000000  celldm(5)=   0.000000  celldm(6)=   0.000000

     crystal axes: (cart. coord. in units of alat)
               a(1) = (   1.000000   0.000000   0.000000 )  
               a(2) = (  -0.500000   0.866025   0.000000 )  
               a(3) = (   0.000000   0.000000   2.727273 )  

     reciprocal axes: (cart. coord. in units 2 pi/alat)
               b(1) = (  1.000000  0.577350  0.000000 )  
               b(2) = (  0.000000  1.154701  0.000000 )  
               b(3) = (  0.000000  0.000000  0.366667 )  


     PseudoPot. # 1 for Si read from file:
     /home/jesus/Documentos/Nanociencia_DFT/pseudopotenciales/Si.pbe-n-rrkjus_psl.1.0.0.UPF
     MD5 check sum: fa25574f73a70a4139f2adfbefec430c
     Pseudo is Ultrasoft + core correction, Zval =  4.0
     Generated using "atomic" code by A. Dal Corso v.6.3
     Using radial grid of 1141 points,  6 beta functions with: 
                l(1) =   0
                l(2) =   0
                l(3) =   1
                l(4) =   1
                l(5) =   2
                l(6) =   2
     Q(r) pseudized with 0 coefficients 


     atomic species   valence    mass     pseudopotential
        Si             4.00    28.08550     Si( 1.00)

      6 Sym. Ops. (no inversion) found



   Cartesian axes

     site n.     atom                  positions (alat units)
         1           Si  tau(   1) = (  -0.0000000   0.5773503   1.3414889  )
         2           Si  tau(   2) = (   0.5000000   0.2886751   1.4539275  )

     number of k points=    44  Methfessel-Paxton smearing, width (Ry)=  0.0100
                       cart. coord. in units 2pi/alat
        k(    1) = (   0.0000000   0.0000000   0.0000000), wk =   0.0058309
        k(    2) = (   0.0000000   0.0000000   0.0523810), wk =   0.0116618
        k(    3) = (   0.0000000   0.0000000   0.1047619), wk =   0.0116618
        k(    4) = (   0.0000000   0.0000000   0.1571429), wk =   0.0116618
        k(    5) = (   0.0000000   0.1649572   0.0000000), wk =   0.0349854
        k(    6) = (   0.0000000   0.1649572   0.0523810), wk =   0.0349854
        k(    7) = (   0.0000000   0.1649572   0.1047619), wk =   0.0349854
        k(    8) = (   0.0000000   0.1649572   0.1571429), wk =   0.0349854
        k(    9) = (   0.0000000   0.3299144   0.0000000), wk =   0.0349854
        k(   10) = (   0.0000000   0.3299144   0.0523810), wk =   0.0349854
        k(   11) = (   0.0000000   0.3299144   0.1047619), wk =   0.0349854
        k(   12) = (   0.0000000   0.3299144   0.1571429), wk =   0.0349854
        k(   13) = (   0.0000000   0.4948717   0.0000000), wk =   0.0349854
        k(   14) = (   0.0000000   0.4948717   0.0523810), wk =   0.0349854
        k(   15) = (   0.0000000   0.4948717   0.1047619), wk =   0.0349854
        k(   16) = (   0.0000000   0.4948717   0.1571429), wk =   0.0349854
        k(   17) = (   0.1428571   0.2474358   0.0000000), wk =   0.0349854
        k(   18) = (   0.1428571   0.2474358   0.0523810), wk =   0.0699708
        k(   19) = (   0.1428571   0.2474358   0.1047619), wk =   0.0699708
        k(   20) = (   0.1428571   0.2474358   0.1571429), wk =   0.0699708
        k(   21) = (   0.1428571   0.4123930   0.0000000), wk =   0.0699708
        k(   22) = (   0.1428571   0.4123930   0.0523810), wk =   0.0699708
        k(   23) = (   0.1428571   0.4123930   0.1047619), wk =   0.0699708
        k(   24) = (   0.1428571   0.4123930   0.1571429), wk =   0.0699708
        k(   25) = (   0.1428571   0.5773503   0.0000000), wk =   0.0349854
        k(   26) = (   0.1428571   0.5773503   0.0523810), wk =   0.0699708
        k(   27) = (   0.1428571   0.5773503   0.1047619), wk =   0.0699708
        k(   28) = (   0.1428571   0.5773503   0.1571429), wk =   0.0699708
        k(   29) = (   0.2857143   0.4948717   0.0000000), wk =   0.0349854
        k(   30) = (   0.2857143   0.4948717   0.0523810), wk =   0.0699708
        k(   31) = (   0.2857143   0.4948717   0.1047619), wk =   0.0699708
        k(   32) = (   0.2857143   0.4948717   0.1571429), wk =   0.0699708
        k(   33) = (   0.0000000  -0.1649572   0.0523810), wk =   0.0349854
        k(   34) = (   0.0000000  -0.1649572   0.1047619), wk =   0.0349854
        k(   35) = (   0.0000000  -0.1649572   0.1571429), wk =   0.0349854
        k(   36) = (   0.0000000  -0.3299144   0.0523810), wk =   0.0349854
        k(   37) = (   0.0000000  -0.3299144   0.1047619), wk =   0.0349854
        k(   38) = (   0.0000000  -0.3299144   0.1571429), wk =   0.0349854
        k(   39) = (   0.0000000  -0.4948717   0.0523810), wk =   0.0349854
        k(   40) = (   0.0000000  -0.4948717   0.1047619), wk =   0.0349854
        k(   41) = (   0.0000000  -0.4948717   0.1571429), wk =   0.0349854
        k(   42) = (  -0.1428571  -0.4123930   0.0523810), wk =   0.0699708
        k(   43) = (  -0.1428571  -0.4123930   0.1047619), wk =   0.0699708
        k(   44) = (  -0.1428571  -0.4123930   0.1571429), wk =   0.0699708

     Dense  grid:    85341 G-vectors     FFT dimensions: (  45,  45, 120)

     Smooth grid:    30145 G-vectors     FFT dimensions: (  30,  30,  80)

     Estimated max dynamical RAM per process >     323.83 MB

     Initial potential from superposition of free atoms

     starting charge    7.99888, renormalised to    8.00000

     negative rho (up, down):  3.128E-06 0.000E+00
     Starting wfcs are    8 randomized atomic wfcs

     total cpu time spent up to now is        2.5 secs

     Self-consistent Calculation

     iteration #  1     ecut=    30.00 Ry     beta= 0.70
     Davidson diagonalization with overlap
     ethr =  1.00E-02,  avg # of iterations =  3.1

     Threshold (ethr) on eigenvalues was too large:
     Diagonalizing with lowered threshold

     Davidson diagonalization with overlap
     ethr =  3.13E-04,  avg # of iterations =  3.6

     negative rho (up, down):  1.221E-07 0.000E+00

     total cpu time spent up to now is        9.6 secs

     total energy              =     -22.66971417 Ry
     estimated scf accuracy    <       0.02782740 Ry

     iteration #  2     ecut=    30.00 Ry     beta= 0.70
     Davidson diagonalization with overlap
     ethr =  3.48E-04,  avg # of iterations =  1.3

     negative rho (up, down):  1.302E-07 0.000E+00

     total cpu time spent up to now is       12.8 secs

     total energy              =     -22.67078187 Ry
     estimated scf accuracy    <       0.00152259 Ry

     iteration #  3     ecut=    30.00 Ry     beta= 0.70
     Davidson diagonalization with overlap
     ethr =  1.90E-05,  avg # of iterations =  6.6

     negative rho (up, down):  1.576E-07 0.000E+00

     total cpu time spent up to now is       17.0 secs

     total energy              =     -22.67090005 Ry
     estimated scf accuracy    <       0.00003344 Ry

     iteration #  4     ecut=    30.00 Ry     beta= 0.70
     Davidson diagonalization with overlap
     ethr =  4.18E-07,  avg # of iterations =  5.0

     negative rho (up, down):  1.980E-07 0.000E+00

     total cpu time spent up to now is       21.1 secs

     End of self-consistent calculation

          k = 0.0000 0.0000 0.0000 (  3777 PWs)   bands (ev):

   -11.9521  -5.0669  -3.6900  -3.6900  -3.1095   0.1369   0.1370   0.2434

          k = 0.0000 0.0000 0.0524 (  3795 PWs)   bands (ev):

   -11.9521  -5.0669  -3.6900  -3.6900  -3.1095   0.1369   0.1369   0.2491

          k = 0.0000 0.0000 0.1048 (  3778 PWs)   bands (ev):

   -11.9521  -5.0669  -3.6900  -3.6900  -3.1096   0.1369   0.1369   0.2625

          k = 0.0000 0.0000 0.1571 (  3784 PWs)   bands (ev):

   -11.9521  -5.0670  -3.6900  -3.6900  -3.1096   0.1368   0.1368   0.2737

          k = 0.0000 0.1650 0.0000 (  3777 PWs)   bands (ev):

   -11.7809  -5.8356  -4.2194  -3.9294  -1.8920   0.0481   0.3147   0.7084

          k = 0.0000 0.1650 0.0524 (  3771 PWs)   bands (ev):

   -11.7809  -5.8356  -4.2194  -3.9294  -1.8920   0.0491   0.3168   0.7084

          k = 0.0000 0.1650 0.1048 (  3769 PWs)   bands (ev):

   -11.7809  -5.8356  -4.2194  -3.9294  -1.8921   0.0513   0.3222   0.7085

          k = 0.0000 0.1650 0.1571 (  3778 PWs)   bands (ev):

   -11.7809  -5.8356  -4.2195  -3.9294  -1.8921   0.0530   0.3269   0.7085

          k = 0.0000 0.3299 0.0000 (  3752 PWs)   bands (ev):

   -11.2861  -7.3791  -4.3419  -3.8825  -1.6210  -0.4884   1.5294   2.0325

          k = 0.0000 0.3299 0.0524 (  3759 PWs)   bands (ev):

   -11.2861  -7.3791  -4.3419  -3.8826  -1.6210  -0.4883   1.5327   2.0326

          k = 0.0000 0.3299 0.1048 (  3761 PWs)   bands (ev):

   -11.2861  -7.3791  -4.3419  -3.8826  -1.6210  -0.4879   1.5402   2.0326

          k = 0.0000 0.3299 0.1571 (  3757 PWs)   bands (ev):

   -11.2861  -7.3791  -4.3419  -3.8826  -1.6210  -0.4876   1.5469   2.0325

          k = 0.0000 0.4949 0.0000 (  3776 PWs)   bands (ev):

   -10.6009  -8.6540  -4.6018  -3.3251  -1.7790  -1.3963   2.6663   3.1333

          k = 0.0000 0.4949 0.0524 (  3781 PWs)   bands (ev):

   -10.6009  -8.6540  -4.6018  -3.3251  -1.7790  -1.3963   2.6898   3.1333

          k = 0.0000 0.4949 0.1048 (  3777 PWs)   bands (ev):

   -10.6009  -8.6540  -4.6018  -3.3251  -1.7791  -1.3963   2.7253   3.1333

          k = 0.0000 0.4949 0.1571 (  3764 PWs)   bands (ev):

   -10.6009  -8.6540  -4.6018  -3.3251  -1.7791  -1.3963   2.7442   3.1333

          k = 0.1429 0.2474 0.0000 (  3743 PWs)   bands (ev):

   -11.4461  -6.9352  -4.4459  -3.9899  -0.9829  -0.3651   0.3664   2.0002

          k = 0.1429 0.2474 0.0524 (  3759 PWs)   bands (ev):

   -11.4461  -6.9352  -4.4459  -3.9899  -0.9829  -0.3648   0.3671   1.9997

          k = 0.1429 0.2474 0.1048 (  3770 PWs)   bands (ev):

   -11.4461  -6.9352  -4.4459  -3.9900  -0.9830  -0.3643   0.3687   1.9994

          k = 0.1429 0.2474 0.1571 (  3774 PWs)   bands (ev):

   -11.4461  -6.9352  -4.4459  -3.9900  -0.9830  -0.3640   0.3700   1.9990

          k = 0.1429 0.4124 0.0000 (  3764 PWs)   bands (ev):

   -10.8215  -8.2282  -4.9875  -3.4329  -1.2170  -0.6519   1.5316   2.4087

          k = 0.1429 0.4124 0.0524 (  3767 PWs)   bands (ev):

   -10.8215  -8.2282  -4.9875  -3.4329  -1.2170  -0.6518   1.5313   2.4365

          k = 0.1429 0.4124 0.1048 (  3765 PWs)   bands (ev):

   -10.8215  -8.2282  -4.9875  -3.4329  -1.2170  -0.6518   1.5321   2.4681

          k = 0.1429 0.4124 0.1571 (  3762 PWs)   bands (ev):

   -10.8215  -8.2282  -4.9875  -3.4330  -1.2170  -0.6518   1.5330   2.4744

          k = 0.1429 0.5774 0.0000 (  3782 PWs)   bands (ev):

   -10.2799  -9.0171  -5.1839  -2.9578  -1.7996  -0.7605   2.3659   3.2472

          k = 0.1429 0.5774 0.0524 (  3779 PWs)   bands (ev):

   -10.2799  -9.0171  -5.1839  -2.9578  -1.7996  -0.7605   2.3653   3.2476

          k = 0.1429 0.5774 0.1048 (  3767 PWs)   bands (ev):

   -10.2799  -9.0171  -5.1839  -2.9578  -1.7997  -0.7603   2.3636   3.2487

          k = 0.1429 0.5774 0.1571 (  3767 PWs)   bands (ev):

   -10.2799  -9.0171  -5.1839  -2.9578  -1.7997  -0.7604   2.3626   3.2490

          k = 0.2857 0.4949 0.0000 (  3779 PWs)   bands (ev):

   -10.1195  -9.1311  -5.6016  -2.7706  -1.8944   0.8872   1.5749   1.9658

          k = 0.2857 0.4949 0.0524 (  3766 PWs)   bands (ev):

   -10.1195  -9.1311  -5.6016  -2.7706  -1.8944   0.8871   1.5749   1.9652

          k = 0.2857 0.4949 0.1048 (  3774 PWs)   bands (ev):

   -10.1195  -9.1311  -5.6016  -2.7706  -1.8944   0.8871   1.5750   1.9637

          k = 0.2857 0.4949 0.1571 (  3777 PWs)   bands (ev):

   -10.1195  -9.1311  -5.6016  -2.7706  -1.8944   0.8871   1.5751   1.9625

          k = 0.0000-0.1650 0.0524 (  3771 PWs)   bands (ev):

   -11.7809  -5.8356  -4.2194  -3.9294  -1.8921   0.0490   0.3174   0.7084

          k = 0.0000-0.1650 0.1048 (  3769 PWs)   bands (ev):

   -11.7809  -5.8356  -4.2194  -3.9294  -1.8921   0.0512   0.3229   0.7085

          k = 0.0000-0.1650 0.1571 (  3778 PWs)   bands (ev):

   -11.7809  -5.8356  -4.2195  -3.9294  -1.8921   0.0529   0.3272   0.7085

          k = 0.0000-0.3299 0.0524 (  3759 PWs)   bands (ev):

   -11.2861  -7.3791  -4.3419  -3.8826  -1.6210  -0.4882   1.5327   2.0326

          k = 0.0000-0.3299 0.1048 (  3761 PWs)   bands (ev):

   -11.2861  -7.3791  -4.3419  -3.8826  -1.6210  -0.4877   1.5412   2.0326

          k = 0.0000-0.3299 0.1571 (  3757 PWs)   bands (ev):

   -11.2861  -7.3791  -4.3419  -3.8826  -1.6210  -0.4875   1.5479   2.0325

          k = 0.0000-0.4949 0.0524 (  3781 PWs)   bands (ev):

   -10.6009  -8.6540  -4.6018  -3.3251  -1.7790  -1.3962   2.6681   3.1333

          k = 0.0000-0.4949 0.1048 (  3777 PWs)   bands (ev):

   -10.6009  -8.6540  -4.6018  -3.3251  -1.7790  -1.3962   2.6937   3.1333

          k = 0.0000-0.4949 0.1571 (  3764 PWs)   bands (ev):

   -10.6009  -8.6540  -4.6018  -3.3251  -1.7791  -1.3963   2.7283   3.1333

          k =-0.1429-0.4124 0.0524 (  3767 PWs)   bands (ev):

   -10.8215  -8.2282  -4.9875  -3.4329  -1.2170  -0.6519   1.5322   2.4051

          k =-0.1429-0.4124 0.1048 (  3765 PWs)   bands (ev):

   -10.8215  -8.2282  -4.9875  -3.4329  -1.2170  -0.6519   1.5331   2.4236

          k =-0.1429-0.4124 0.1571 (  3762 PWs)   bands (ev):

   -10.8215  -8.2282  -4.9875  -3.4330  -1.2170  -0.6518   1.5335   2.4533

     the Fermi energy is    -2.7145 ev

!    total energy              =     -22.67091028 Ry
     estimated scf accuracy    <       0.00000085 Ry
     smearing contrib. (-TS)   =      -0.00011584 Ry
     internal energy E=F+TS    =     -22.67079444 Ry

     The total energy is F=E-TS. E is the sum of the following terms:
     one-electron contribution =     -29.40662068 Ry
     hartree contribution      =      15.74679560 Ry
     xc contribution           =     -11.82100960 Ry
     ewald contribution        =       2.81004025 Ry

     convergence has been achieved in   4 iterations

     negative rho (up, down):  1.980E-07 0.000E+00

     Forces acting on atoms (cartesian axes, Ry/au):

     atom    1 type  1   force =     0.00000000    0.00000000    0.00957669
     atom    2 type  1   force =     0.00000000    0.00000000   -0.00957669

     Total force =     0.013543     Total SCF correction =     0.001092

     BFGS Geometry Optimization

     number of scf cycles    =   1
     number of bfgs steps    =   0

     energy   new            =     -22.6709102784 Ry

     new trust radius        =       0.0095766886 bohr

     The maximum number of steps has been reached.

     End of BFGS Geometry Optimization

ATOMIC_POSITIONS (crystal)
Si            0.3333333300        0.6666666700        0.4923015618
Si            0.6666666700        0.3333333300        0.5326844502



     Writing output data file /home/jesus/Documentos/Nanociencia_DFT/test.save/
     NEW-OLD atomic charge density approx. for the potential

     negative rho (up, down):  1.946E-07 0.000E+00

     Writing output data file /home/jesus/Documentos/Nanociencia_DFT/test.save/
 
     init_run     :      1.62s CPU      1.89s WALL (       1 calls)
     electrons    :     17.41s CPU     18.53s WALL (       1 calls)
     update_pot   :      0.21s CPU      0.21s WALL (       1 calls)
     forces       :      0.67s CPU      0.76s WALL (       1 calls)

     Called by init_run:
     wfcinit      :      0.83s CPU      0.86s WALL (       1 calls)
     potinit      :      0.19s CPU      0.23s WALL (       1 calls)
     hinit0       :      0.32s CPU      0.36s WALL (       1 calls)

     Called by electrons:
     c_bands      :     13.10s CPU     13.19s WALL (       5 calls)
     sum_band     :      3.06s CPU      3.61s WALL (       5 calls)
     v_of_rho     :      0.67s CPU      0.71s WALL (       6 calls)
     newd         :      1.19s CPU      1.88s WALL (       6 calls)
     mix_rho      :      0.04s CPU      0.04s WALL (       5 calls)

     Called by c_bands:
     init_us_2    :      0.58s CPU      0.58s WALL (     528 calls)
     cegterg      :     10.61s CPU     10.69s WALL (     220 calls)

     Called by *egterg:
     cdiaghg      :      0.13s CPU      0.13s WALL (    1042 calls)
     h_psi        :      9.90s CPU      9.99s WALL (    1130 calls)
     s_psi        :      0.35s CPU      0.35s WALL (    1130 calls)
     g_psi        :      0.04s CPU      0.04s WALL (     866 calls)

     Called by h_psi:
     h_psi:calbec :      0.44s CPU      0.44s WALL (    1130 calls)
     vloc_psi     :      9.01s CPU      9.10s WALL (    1130 calls)
     add_vuspsi   :      0.39s CPU      0.40s WALL (    1130 calls)

     General routines
     calbec       :      0.64s CPU      0.64s WALL (    1526 calls)
     fft          :      0.31s CPU      0.34s WALL (      89 calls)
     ffts         :      0.01s CPU      0.01s WALL (      11 calls)
     fftw         :      9.22s CPU      9.31s WALL (   12550 calls)
     interpolate  :      0.03s CPU      0.03s WALL (       6 calls)
     davcio       :      0.00s CPU      0.01s WALL (      44 calls)
 
     Parallel routines
 
     PWSCF        :     20.83s CPU     22.41s WALL

 
   This run was terminated on:  11: 4: 4  17Mar2021            

=------------------------------------------------------------------------------=
   JOB DONE.
=------------------------------------------------------------------------------=
