
     Program PWSCF v.6.6 starts on  2Apr2021 at 15:50:38 

     This program is part of the open-source Quantum ESPRESSO suite
     for quantum simulation of materials; please cite
         "P. Giannozzi et al., J. Phys.:Condens. Matter 21 395502 (2009);
         "P. Giannozzi et al., J. Phys.:Condens. Matter 29 465901 (2017);
          URL http://www.quantum-espresso.org", 
     in publications or presentations arising from this work. More details at
     http://www.quantum-espresso.org/quote

     Parallel version (MPI), running on     1 processors

     MPI processes distributed on     1 nodes
     Fft bands division:     nmany     =       1
     Waiting for input...
     Reading input from standard input
Warning: card &CELL ignored
Warning: card   CELL_DYNAMICS='BFGS', ignored
Warning: card   CELL_DOFREE='ALL', ignored
Warning: card / ignored

     Current dimensions of program PWSCF are:
     Max number of different atomic species (ntypx) = 10
     Max number of k-points (npk) =  40000
     Max angular momentum in pseudopotentials (lmaxx) =  3

     Subspace diagonalization in iterative solution of the eigenvalue problem:
     a serial algorithm will be used

 
     G-vector sticks info
     --------------------
     sticks:   dense  smooth     PW     G-vecs:    dense   smooth      PW
     Sum         859     433    121                64485    22903    3679
 


     bravais-lattice index     =            4
     lattice parameter (alat)  =       7.2377  a.u.
     unit-cell volume          =    1028.7409 (a.u.)^3
     number of atoms/cell      =            2
     number of atomic types    =            1
     number of electrons       =         8.00
     number of Kohn-Sham states=            8
     kinetic-energy cutoff     =      30.0000  Ry
     charge density cutoff     =     240.0000  Ry
     convergence threshold     =      1.0E-06
     mixing beta               =       0.7000
     number of iterations used =            8  plain     mixing
     Exchange-correlation= PBE
                           (   1   4   3   4   0   0   0)
     nstep                     =            1


     celldm(1)=   7.237651  celldm(2)=   0.000000  celldm(3)=   3.133159
     celldm(4)=   0.000000  celldm(5)=   0.000000  celldm(6)=   0.000000

     crystal axes: (cart. coord. in units of alat)
               a(1) = (   1.000000   0.000000   0.000000 )  
               a(2) = (  -0.500000   0.866025   0.000000 )  
               a(3) = (   0.000000   0.000000   3.133159 )  

     reciprocal axes: (cart. coord. in units 2 pi/alat)
               b(1) = (  1.000000  0.577350  0.000000 )  
               b(2) = (  0.000000  1.154701  0.000000 )  
               b(3) = (  0.000000  0.000000  0.319167 )  


     PseudoPot. # 1 for Si read from file:
     /home/jesus/Documentos/Nanociencia_DFT/pseudopotenciales/Si.pbe-n-rrkjus_psl.1.0.0.UPF
     MD5 check sum: fa25574f73a70a4139f2adfbefec430c
     Pseudo is Ultrasoft + core correction, Zval =  4.0
     Generated using "atomic" code by A. Dal Corso v.6.3
     Using radial grid of 1141 points,  6 beta functions with: 
                l(1) =   0
                l(2) =   0
                l(3) =   1
                l(4) =   1
                l(5) =   2
                l(6) =   2
     Q(r) pseudized with 0 coefficients 


     atomic species   valence    mass     pseudopotential
        Si             4.00    28.08550     Si( 1.00)

      6 Sym. Ops. (no inversion) found



   Cartesian axes

     site n.     atom                  positions (alat units)
         1           Si  tau(   1) = (  -0.0000000   0.5773503   1.5411360  )
         2           Si  tau(   2) = (   0.5000000   0.2886751   1.6703084  )

     number of k points=     8  Methfessel-Paxton smearing, width (Ry)=  0.0100
                       cart. coord. in units 2pi/alat
        k(    1) = (   0.0000000   0.0000000   0.0000000), wk =   0.0408163
        k(    2) = (   0.0000000   0.1649572   0.0000000), wk =   0.2448980
        k(    3) = (   0.0000000   0.3299144   0.0000000), wk =   0.2448980
        k(    4) = (   0.0000000   0.4948717   0.0000000), wk =   0.2448980
        k(    5) = (   0.1428571   0.2474358   0.0000000), wk =   0.2448980
        k(    6) = (   0.1428571   0.4123930   0.0000000), wk =   0.4897959
        k(    7) = (   0.1428571   0.5773503   0.0000000), wk =   0.2448980
        k(    8) = (   0.2857143   0.4948717   0.0000000), wk =   0.2448980

     Dense  grid:    64485 G-vectors     FFT dimensions: (  36,  36, 120)

     Smooth grid:    22903 G-vectors     FFT dimensions: (  25,  25,  80)

     Estimated max dynamical RAM per process >     230.58 MB

     Initial potential from superposition of free atoms

     starting charge    7.99888, renormalised to    8.00000

     negative rho (up, down):  2.486E-06 0.000E+00
     Starting wfcs are    8 randomized atomic wfcs

     total cpu time spent up to now is        1.5 secs

     Self-consistent Calculation

     iteration #  1     ecut=    30.00 Ry     beta= 0.70
     Davidson diagonalization with overlap
     ethr =  1.00E-02,  avg # of iterations =  4.2

     Threshold (ethr) on eigenvalues was too large:
     Diagonalizing with lowered threshold

     Davidson diagonalization with overlap
     ethr =  8.02E-04,  avg # of iterations =  1.8

     negative rho (up, down):  7.553E-07 0.000E+00

     total cpu time spent up to now is        3.1 secs

     total energy              =     -22.73748419 Ry
     estimated scf accuracy    <       0.07030944 Ry

     iteration #  2     ecut=    30.00 Ry     beta= 0.70
     Davidson diagonalization with overlap
     ethr =  8.79E-04,  avg # of iterations =  2.5

     negative rho (up, down):  1.273E-06 0.000E+00

     total cpu time spent up to now is        4.0 secs

     total energy              =     -22.74508434 Ry
     estimated scf accuracy    <       0.00191564 Ry

     iteration #  3     ecut=    30.00 Ry     beta= 0.70
     Davidson diagonalization with overlap
     ethr =  2.39E-05,  avg # of iterations =  6.4

     negative rho (up, down):  1.863E-06 0.000E+00

     total cpu time spent up to now is        5.5 secs

     total energy              =     -22.74527906 Ry
     estimated scf accuracy    <       0.00012445 Ry

     iteration #  4     ecut=    30.00 Ry     beta= 0.70
     Davidson diagonalization with overlap
     ethr =  1.56E-06,  avg # of iterations =  3.6

     negative rho (up, down):  1.852E-06 0.000E+00

     total cpu time spent up to now is        6.6 secs

     total energy              =     -22.74529206 Ry
     estimated scf accuracy    <       0.00000284 Ry

     iteration #  5     ecut=    30.00 Ry     beta= 0.70
     Davidson diagonalization with overlap
     ethr =  3.55E-08,  avg # of iterations =  2.6

     negative rho (up, down):  1.854E-06 0.000E+00

     total cpu time spent up to now is        7.8 secs

     total energy              =     -22.74529305 Ry
     estimated scf accuracy    <       0.00000234 Ry

     iteration #  6     ecut=    30.00 Ry     beta= 0.70
     Davidson diagonalization with overlap
     ethr =  2.92E-08,  avg # of iterations =  1.2

     negative rho (up, down):  1.858E-06 0.000E+00

     total cpu time spent up to now is        9.0 secs

     End of self-consistent calculation

          k = 0.0000 0.0000 0.0000 (  2835 PWs)   bands (ev):

   -12.8218  -4.9361  -2.8187  -2.8187   0.5045   0.7511   1.4058   1.4058

          k = 0.0000 0.1650 0.0000 (  2875 PWs)   bands (ev):

   -12.5793  -4.8407  -4.1691  -3.2049   0.6887   0.9133   2.2530   2.2988

          k = 0.0000 0.3299 0.0000 (  2861 PWs)   bands (ev):

   -11.8705  -6.6185  -3.9417  -3.8243  -0.0772   0.7302   2.6315   4.1301

          k = 0.0000 0.4949 0.0000 (  2867 PWs)   bands (ev):

   -10.8376  -8.4672  -4.1978  -2.9955  -0.7972  -0.3538   3.4365   4.9668

          k = 0.1429 0.2474 0.0000 (  2855 PWs)   bands (ev):

   -12.1020  -5.9113  -4.1324  -4.0701   0.8609   1.5701   1.7739   2.8144

          k = 0.1429 0.4124 0.0000 (  2842 PWs)   bands (ev):

   -11.1955  -7.6939  -4.8949  -3.2939  -0.1285   1.1386   3.1049   3.5894

          k = 0.1429 0.5774 0.0000 (  2860 PWs)   bands (ev):

   -10.3447  -8.8917  -5.1697  -2.5073  -1.1150   0.9160   3.2363   4.4193

          k = 0.2857 0.4949 0.0000 (  2844 PWs)   bands (ev):

   -10.1717  -8.8155  -5.9508  -2.3273  -1.0845   2.4951   3.3985   3.8839

     the Fermi energy is    -1.2175 ev

!    total energy              =     -22.74529346 Ry
     estimated scf accuracy    <       0.00000005 Ry
     smearing contrib. (-TS)   =       0.00014829 Ry
     internal energy E=F+TS    =     -22.74544175 Ry

     The total energy is F=E-TS. E is the sum of the following terms:
     one-electron contribution =     -38.55906177 Ry
     hartree contribution      =      20.58458656 Ry
     xc contribution           =     -12.16358630 Ry
     ewald contribution        =       7.39261975 Ry

     convergence has been achieved in   6 iterations

     negative rho (up, down):  1.858E-06 0.000E+00

     Forces acting on atoms (cartesian axes, Ry/au):

     atom    1 type  1   force =     0.00000000    0.00000000    0.00038875
     atom    2 type  1   force =     0.00000000    0.00000000   -0.00038875

     Total force =     0.000550     Total SCF correction =     0.000083
     SCF correction compared to forces is large: reduce conv_thr to get better values

     BFGS Geometry Optimization

     bfgs converged in   1 scf cycles and   0 bfgs steps
     (criteria: energy <  1.0E-04 Ry, force <  1.0E-03 Ry/Bohr)

     End of BFGS Geometry Optimization

     Final energy   =     -22.7452934584 Ry
Begin final coordinates

ATOMIC_POSITIONS (crystal)
Si            0.3333333300        0.6666666700        0.4918792480
Si            0.6666666700        0.3333333300        0.5331067640
End final coordinates



     Writing output data file /home/jesus/Documentos/Nanociencia_DFT/test.save/
 
     init_run     :      0.71s CPU      0.83s WALL (       1 calls)
     electrons    :      6.30s CPU      7.54s WALL (       1 calls)
     forces       :      0.45s CPU      0.57s WALL (       1 calls)

     Called by init_run:
     wfcinit      :      0.11s CPU      0.11s WALL (       1 calls)
     potinit      :      0.09s CPU      0.12s WALL (       1 calls)
     hinit0       :      0.29s CPU      0.31s WALL (       1 calls)

     Called by electrons:
     c_bands      :      2.64s CPU      2.68s WALL (       7 calls)
     sum_band     :      2.03s CPU      2.69s WALL (       7 calls)
     v_of_rho     :      0.53s CPU      0.57s WALL (       7 calls)
     newd         :      1.26s CPU      1.83s WALL (       7 calls)
     mix_rho      :      0.05s CPU      0.05s WALL (       7 calls)

     Called by c_bands:
     init_us_2    :      0.13s CPU      0.13s WALL (     128 calls)
     cegterg      :      2.10s CPU      2.13s WALL (      56 calls)

     Called by *egterg:
     cdiaghg      :      0.03s CPU      0.03s WALL (     227 calls)
     h_psi        :      1.89s CPU      1.92s WALL (     243 calls)
     s_psi        :      0.07s CPU      0.08s WALL (     243 calls)
     g_psi        :      0.01s CPU      0.01s WALL (     179 calls)

     Called by h_psi:
     h_psi:calbec :      0.09s CPU      0.10s WALL (     243 calls)
     vloc_psi     :      1.70s CPU      1.73s WALL (     243 calls)
     add_vuspsi   :      0.08s CPU      0.09s WALL (     243 calls)

     General routines
     calbec       :      0.14s CPU      0.14s WALL (     331 calls)
     fft          :      0.24s CPU      0.26s WALL (     101 calls)
     ffts         :      0.01s CPU      0.01s WALL (      14 calls)
     fftw         :      1.78s CPU      1.81s WALL (    3002 calls)
     interpolate  :      0.03s CPU      0.03s WALL (       7 calls)
 
     Parallel routines
 
     PWSCF        :      8.14s CPU      9.64s WALL

 
   This run was terminated on:  15:50:47   2Apr2021            

=------------------------------------------------------------------------------=
   JOB DONE.
=------------------------------------------------------------------------------=
