
     Program PWSCF v.6.6 starts on 17Mar2021 at 11: 4: 4 

     This program is part of the open-source Quantum ESPRESSO suite
     for quantum simulation of materials; please cite
         "P. Giannozzi et al., J. Phys.:Condens. Matter 21 395502 (2009);
         "P. Giannozzi et al., J. Phys.:Condens. Matter 29 465901 (2017);
          URL http://www.quantum-espresso.org", 
     in publications or presentations arising from this work. More details at
     http://www.quantum-espresso.org/quote

     Parallel version (MPI), running on     1 processors

     MPI processes distributed on     1 nodes
     Fft bands division:     nmany     =       1
     Waiting for input...
     Reading input from standard input
Warning: card &CELL ignored
Warning: card   CELL_DYNAMICS='BFGS', ignored
Warning: card   CELL_DOFREE='ALL', ignored
Warning: card / ignored

     Current dimensions of program PWSCF are:
     Max number of different atomic species (ntypx) = 10
     Max number of k-points (npk) =  40000
     Max angular momentum in pseudopotentials (lmaxx) =  3

     File /home/jesus/Documentos/Nanociencia_DFT/test.update deleted, as requested

     File /home/jesus/Documentos/Nanociencia_DFT/test.bfgs deleted, as requested

     Subspace diagonalization in iterative solution of the eigenvalue problem:
     a serial algorithm will be used

 
     G-vector sticks info
     --------------------
     sticks:   dense  smooth     PW     G-vecs:    dense   smooth      PW
     Sum        1189     595    169                89127    31597    4939
 


     bravais-lattice index     =            4
     lattice parameter (alat)  =       8.5038  a.u.
     unit-cell volume          =    1420.1477 (a.u.)^3
     number of atoms/cell      =            2
     number of atomic types    =            1
     number of electrons       =         8.00
     number of Kohn-Sham states=            8
     kinetic-energy cutoff     =      30.0000  Ry
     charge density cutoff     =     240.0000  Ry
     convergence threshold     =      1.0E-06
     mixing beta               =       0.7000
     number of iterations used =            8  plain     mixing
     Exchange-correlation= PBE
                           (   1   4   3   4   0   0   0)
     nstep                     =            1


     celldm(1)=   8.503768  celldm(2)=   0.000000  celldm(3)=   2.666667
     celldm(4)=   0.000000  celldm(5)=   0.000000  celldm(6)=   0.000000

     crystal axes: (cart. coord. in units of alat)
               a(1) = (   1.000000   0.000000   0.000000 )  
               a(2) = (  -0.500000   0.866025   0.000000 )  
               a(3) = (   0.000000   0.000000   2.666667 )  

     reciprocal axes: (cart. coord. in units 2 pi/alat)
               b(1) = (  1.000000  0.577350  0.000000 )  
               b(2) = (  0.000000  1.154701  0.000000 )  
               b(3) = (  0.000000  0.000000  0.375000 )  


     PseudoPot. # 1 for Si read from file:
     /home/jesus/Documentos/Nanociencia_DFT/pseudopotenciales/Si.pbe-n-rrkjus_psl.1.0.0.UPF
     MD5 check sum: fa25574f73a70a4139f2adfbefec430c
     Pseudo is Ultrasoft + core correction, Zval =  4.0
     Generated using "atomic" code by A. Dal Corso v.6.3
     Using radial grid of 1141 points,  6 beta functions with: 
                l(1) =   0
                l(2) =   0
                l(3) =   1
                l(4) =   1
                l(5) =   2
                l(6) =   2
     Q(r) pseudized with 0 coefficients 


     atomic species   valence    mass     pseudopotential
        Si             4.00    28.08550     Si( 1.00)

      6 Sym. Ops. (no inversion) found



   Cartesian axes

     site n.     atom                  positions (alat units)
         1           Si  tau(   1) = (  -0.0000000   0.5773503   1.3116780  )
         2           Si  tau(   2) = (   0.5000000   0.2886751   1.4216180  )

     number of k points=    44  Methfessel-Paxton smearing, width (Ry)=  0.0100
                       cart. coord. in units 2pi/alat
        k(    1) = (   0.0000000   0.0000000   0.0000000), wk =   0.0058309
        k(    2) = (   0.0000000   0.0000000   0.0535714), wk =   0.0116618
        k(    3) = (   0.0000000   0.0000000   0.1071429), wk =   0.0116618
        k(    4) = (   0.0000000   0.0000000   0.1607143), wk =   0.0116618
        k(    5) = (   0.0000000   0.1649572   0.0000000), wk =   0.0349854
        k(    6) = (   0.0000000   0.1649572   0.0535714), wk =   0.0349854
        k(    7) = (   0.0000000   0.1649572   0.1071429), wk =   0.0349854
        k(    8) = (   0.0000000   0.1649572   0.1607143), wk =   0.0349854
        k(    9) = (   0.0000000   0.3299144   0.0000000), wk =   0.0349854
        k(   10) = (   0.0000000   0.3299144   0.0535714), wk =   0.0349854
        k(   11) = (   0.0000000   0.3299144   0.1071429), wk =   0.0349854
        k(   12) = (   0.0000000   0.3299144   0.1607143), wk =   0.0349854
        k(   13) = (   0.0000000   0.4948717   0.0000000), wk =   0.0349854
        k(   14) = (   0.0000000   0.4948717   0.0535714), wk =   0.0349854
        k(   15) = (   0.0000000   0.4948717   0.1071429), wk =   0.0349854
        k(   16) = (   0.0000000   0.4948717   0.1607143), wk =   0.0349854
        k(   17) = (   0.1428571   0.2474358   0.0000000), wk =   0.0349854
        k(   18) = (   0.1428571   0.2474358   0.0535714), wk =   0.0699708
        k(   19) = (   0.1428571   0.2474358   0.1071429), wk =   0.0699708
        k(   20) = (   0.1428571   0.2474358   0.1607143), wk =   0.0699708
        k(   21) = (   0.1428571   0.4123930   0.0000000), wk =   0.0699708
        k(   22) = (   0.1428571   0.4123930   0.0535714), wk =   0.0699708
        k(   23) = (   0.1428571   0.4123930   0.1071429), wk =   0.0699708
        k(   24) = (   0.1428571   0.4123930   0.1607143), wk =   0.0699708
        k(   25) = (   0.1428571   0.5773503   0.0000000), wk =   0.0349854
        k(   26) = (   0.1428571   0.5773503   0.0535714), wk =   0.0699708
        k(   27) = (   0.1428571   0.5773503   0.1071429), wk =   0.0699708
        k(   28) = (   0.1428571   0.5773503   0.1607143), wk =   0.0699708
        k(   29) = (   0.2857143   0.4948717   0.0000000), wk =   0.0349854
        k(   30) = (   0.2857143   0.4948717   0.0535714), wk =   0.0699708
        k(   31) = (   0.2857143   0.4948717   0.1071429), wk =   0.0699708
        k(   32) = (   0.2857143   0.4948717   0.1607143), wk =   0.0699708
        k(   33) = (   0.0000000  -0.1649572   0.0535714), wk =   0.0349854
        k(   34) = (   0.0000000  -0.1649572   0.1071429), wk =   0.0349854
        k(   35) = (   0.0000000  -0.1649572   0.1607143), wk =   0.0349854
        k(   36) = (   0.0000000  -0.3299144   0.0535714), wk =   0.0349854
        k(   37) = (   0.0000000  -0.3299144   0.1071429), wk =   0.0349854
        k(   38) = (   0.0000000  -0.3299144   0.1607143), wk =   0.0349854
        k(   39) = (   0.0000000  -0.4948717   0.0535714), wk =   0.0349854
        k(   40) = (   0.0000000  -0.4948717   0.1071429), wk =   0.0349854
        k(   41) = (   0.0000000  -0.4948717   0.1607143), wk =   0.0349854
        k(   42) = (  -0.1428571  -0.4123930   0.0535714), wk =   0.0699708
        k(   43) = (  -0.1428571  -0.4123930   0.1071429), wk =   0.0699708
        k(   44) = (  -0.1428571  -0.4123930   0.1607143), wk =   0.0699708

     Dense  grid:    89127 G-vectors     FFT dimensions: (  45,  45, 120)

     Smooth grid:    31597 G-vectors     FFT dimensions: (  30,  30,  80)

     Estimated max dynamical RAM per process >     337.45 MB

     Initial potential from superposition of free atoms

     starting charge    7.99888, renormalised to    8.00000

     negative rho (up, down):  2.967E-06 0.000E+00
     Starting wfcs are    8 randomized atomic wfcs

     total cpu time spent up to now is        2.5 secs

     Self-consistent Calculation

     iteration #  1     ecut=    30.00 Ry     beta= 0.70
     Davidson diagonalization with overlap
     ethr =  1.00E-02,  avg # of iterations =  2.9

     Threshold (ethr) on eigenvalues was too large:
     Diagonalizing with lowered threshold

     Davidson diagonalization with overlap
     ethr =  2.83E-04,  avg # of iterations =  2.5

     negative rho (up, down):  8.872E-08 0.000E+00

     total cpu time spent up to now is        9.5 secs

     total energy              =     -22.64832992 Ry
     estimated scf accuracy    <       0.02509930 Ry

     iteration #  2     ecut=    30.00 Ry     beta= 0.70
     Davidson diagonalization with overlap
     ethr =  3.14E-04,  avg # of iterations =  1.8

     negative rho (up, down):  7.981E-08 0.000E+00

     total cpu time spent up to now is       12.7 secs

     total energy              =     -22.64924040 Ry
     estimated scf accuracy    <       0.00144161 Ry

     iteration #  3     ecut=    30.00 Ry     beta= 0.70
     Davidson diagonalization with overlap
     ethr =  1.80E-05,  avg # of iterations =  6.9

     negative rho (up, down):  1.179E-07 0.000E+00

     total cpu time spent up to now is       17.1 secs

     total energy              =     -22.64935190 Ry
     estimated scf accuracy    <       0.00003043 Ry

     iteration #  4     ecut=    30.00 Ry     beta= 0.70
     Davidson diagonalization with overlap
     ethr =  3.80E-07,  avg # of iterations =  4.7

     negative rho (up, down):  1.574E-07 0.000E+00

     total cpu time spent up to now is       21.3 secs

     End of self-consistent calculation

          k = 0.0000 0.0000 0.0000 (  3981 PWs)   bands (ev):

   -11.8171  -5.2462  -3.7654  -3.7654  -3.4070  -0.0297  -0.0297   0.1203

          k = 0.0000 0.0000 0.0536 (  3957 PWs)   bands (ev):

   -11.8171  -5.2462  -3.7654  -3.7654  -3.4070  -0.0297  -0.0296   0.1253

          k = 0.0000 0.0000 0.1071 (  3976 PWs)   bands (ev):

   -11.8171  -5.2462  -3.7654  -3.7654  -3.4071  -0.0297  -0.0297   0.1371

          k = 0.0000 0.0000 0.1607 (  3970 PWs)   bands (ev):

   -11.8171  -5.2462  -3.7654  -3.7654  -3.4072  -0.0297  -0.0297   0.1463

          k = 0.0000 0.1650 0.0000 (  3967 PWs)   bands (ev):

   -11.6559  -6.0498  -4.1873  -3.9869  -2.2274  -0.1373   0.1518   0.5046

          k = 0.0000 0.1650 0.0536 (  3949 PWs)   bands (ev):

   -11.6559  -6.0498  -4.1873  -3.9869  -2.2274  -0.1366   0.1537   0.5046

          k = 0.0000 0.1650 0.1071 (  3950 PWs)   bands (ev):

   -11.6559  -6.0498  -4.1874  -3.9869  -2.2275  -0.1352   0.1583   0.5046

          k = 0.0000 0.1650 0.1607 (  3957 PWs)   bands (ev):

   -11.6559  -6.0498  -4.1875  -3.9869  -2.2275  -0.1341   0.1624   0.5046

          k = 0.0000 0.3299 0.0000 (  3959 PWs)   bands (ev):

   -11.1908  -7.4963  -4.3722  -3.8702  -1.8435  -0.6716   1.1981   1.7470

          k = 0.0000 0.3299 0.0536 (  3947 PWs)   bands (ev):

   -11.1908  -7.4963  -4.3722  -3.8702  -1.8436  -0.6715   1.1985   1.7470

          k = 0.0000 0.3299 0.1071 (  3948 PWs)   bands (ev):

   -11.1908  -7.4963  -4.3722  -3.8703  -1.8436  -0.6712   1.2025   1.7469

          k = 0.0000 0.3299 0.1607 (  3953 PWs)   bands (ev):

   -11.1908  -7.4963  -4.3722  -3.8703  -1.8436  -0.6709   1.2059   1.7469

          k = 0.0000 0.4949 0.0000 (  3928 PWs)   bands (ev):

   -10.5514  -8.6864  -4.6166  -3.3650  -1.9289  -1.5240   2.5334   2.8256

          k = 0.0000 0.4949 0.0536 (  3924 PWs)   bands (ev):

   -10.5514  -8.6864  -4.6166  -3.3650  -1.9289  -1.5240   2.5573   2.8256

          k = 0.0000 0.4949 0.1071 (  3934 PWs)   bands (ev):

   -10.5514  -8.6864  -4.6166  -3.3650  -1.9289  -1.5241   2.5920   2.8255

          k = 0.0000 0.4949 0.1607 (  3929 PWs)   bands (ev):

   -10.5514  -8.6864  -4.6166  -3.3650  -1.9290  -1.5241   2.6095   2.8257

          k = 0.1429 0.2474 0.0000 (  3947 PWs)   bands (ev):

   -11.3409  -7.0879  -4.4621  -3.9657  -1.3418  -0.5489   0.1966   1.6823

          k = 0.1429 0.2474 0.0536 (  3955 PWs)   bands (ev):

   -11.3409  -7.0879  -4.4621  -3.9657  -1.3418  -0.5488   0.1973   1.6825

          k = 0.1429 0.2474 0.1071 (  3958 PWs)   bands (ev):

   -11.3409  -7.0879  -4.4621  -3.9658  -1.3419  -0.5485   0.1986   1.6822

          k = 0.1429 0.2474 0.1607 (  3949 PWs)   bands (ev):

   -11.3409  -7.0879  -4.4621  -3.9658  -1.3419  -0.5481   0.1997   1.6823

          k = 0.1429 0.4124 0.0000 (  3934 PWs)   bands (ev):

   -10.7551  -8.3019  -4.9657  -3.4462  -1.3699  -0.9128   1.2217   2.2884

          k = 0.1429 0.4124 0.0536 (  3931 PWs)   bands (ev):

   -10.7551  -8.3019  -4.9657  -3.4462  -1.3700  -0.9128   1.2217   2.3128

          k = 0.1429 0.4124 0.1071 (  3939 PWs)   bands (ev):

   -10.7551  -8.3019  -4.9657  -3.4463  -1.3700  -0.9128   1.2223   2.3352

          k = 0.1429 0.4124 0.1607 (  3941 PWs)   bands (ev):

   -10.7551  -8.3019  -4.9657  -3.4463  -1.3700  -0.9128   1.2229   2.3346

          k = 0.1429 0.5774 0.0000 (  3928 PWs)   bands (ev):

   -10.2519  -9.0368  -5.1502  -3.0105  -1.8942  -0.9970   2.2231   2.7450

          k = 0.1429 0.5774 0.0536 (  3932 PWs)   bands (ev):

   -10.2519  -9.0368  -5.1502  -3.0105  -1.8942  -0.9971   2.2223   2.7450

          k = 0.1429 0.5774 0.1071 (  3932 PWs)   bands (ev):

   -10.2519  -9.0368  -5.1502  -3.0106  -1.8942  -0.9970   2.2207   2.7451

          k = 0.1429 0.5774 0.1607 (  3922 PWs)   bands (ev):

   -10.2519  -9.0368  -5.1502  -3.0106  -1.8942  -0.9970   2.2192   2.7446

          k = 0.2857 0.4949 0.0000 (  3931 PWs)   bands (ev):

   -10.0965  -9.1623  -5.5283  -2.8231  -1.9973   0.4841   1.2616   1.8777

          k = 0.2857 0.4949 0.0536 (  3931 PWs)   bands (ev):

   -10.0965  -9.1623  -5.5283  -2.8231  -1.9973   0.4840   1.2617   1.8770

          k = 0.2857 0.4949 0.1071 (  3922 PWs)   bands (ev):

   -10.0965  -9.1623  -5.5283  -2.8231  -1.9973   0.4840   1.2617   1.8753

          k = 0.2857 0.4949 0.1607 (  3916 PWs)   bands (ev):

   -10.0965  -9.1623  -5.5283  -2.8231  -1.9974   0.4840   1.2618   1.8739

          k = 0.0000-0.1650 0.0536 (  3949 PWs)   bands (ev):

   -11.6559  -6.0498  -4.1873  -3.9869  -2.2275  -0.1366   0.1543   0.5045

          k = 0.0000-0.1650 0.1071 (  3950 PWs)   bands (ev):

   -11.6559  -6.0498  -4.1874  -3.9869  -2.2275  -0.1353   0.1589   0.5046

          k = 0.0000-0.1650 0.1607 (  3957 PWs)   bands (ev):

   -11.6559  -6.0498  -4.1875  -3.9869  -2.2275  -0.1342   0.1626   0.5046

          k = 0.0000-0.3299 0.0536 (  3947 PWs)   bands (ev):

   -11.1908  -7.4963  -4.3722  -3.8702  -1.8436  -0.6714   1.1992   1.7470

          k = 0.0000-0.3299 0.1071 (  3948 PWs)   bands (ev):

   -11.1908  -7.4963  -4.3722  -3.8703  -1.8436  -0.6711   1.2042   1.7470

          k = 0.0000-0.3299 0.1607 (  3953 PWs)   bands (ev):

   -11.1908  -7.4963  -4.3722  -3.8703  -1.8436  -0.6709   1.2062   1.7470

          k = 0.0000-0.4949 0.0536 (  3924 PWs)   bands (ev):

   -10.5514  -8.6864  -4.6166  -3.3650  -1.9289  -1.5240   2.5347   2.8257

          k = 0.0000-0.4949 0.1071 (  3934 PWs)   bands (ev):

   -10.5514  -8.6864  -4.6166  -3.3650  -1.9290  -1.5240   2.5594   2.8255

          k = 0.0000-0.4949 0.1607 (  3929 PWs)   bands (ev):

   -10.5514  -8.6864  -4.6166  -3.3650  -1.9290  -1.5240   2.5935   2.8255

          k =-0.1429-0.4124 0.0536 (  3931 PWs)   bands (ev):

   -10.7551  -8.3019  -4.9657  -3.4462  -1.3699  -0.9128   1.2222   2.2808

          k =-0.1429-0.4124 0.1071 (  3939 PWs)   bands (ev):

   -10.7551  -8.3019  -4.9657  -3.4463  -1.3699  -0.9128   1.2229   2.2937

          k =-0.1429-0.4124 0.1607 (  3941 PWs)   bands (ev):

   -10.7551  -8.3019  -4.9657  -3.4463  -1.3699  -0.9128   1.2233   2.3161

     the Fermi energy is    -2.7669 ev

!    total energy              =     -22.64936146 Ry
     estimated scf accuracy    <       0.00000039 Ry
     smearing contrib. (-TS)   =      -0.00011627 Ry
     internal energy E=F+TS    =     -22.64924519 Ry

     The total energy is F=E-TS. E is the sum of the following terms:
     one-electron contribution =     -28.20202585 Ry
     hartree contribution      =      15.11310554 Ry
     xc contribution           =     -11.77684747 Ry
     ewald contribution        =       2.21652259 Ry

     convergence has been achieved in   4 iterations

     negative rho (up, down):  1.574E-07 0.000E+00

     Forces acting on atoms (cartesian axes, Ry/au):

     atom    1 type  1   force =     0.00000000    0.00000000    0.00643220
     atom    2 type  1   force =     0.00000000    0.00000000   -0.00643220

     Total force =     0.009097     Total SCF correction =     0.000314

     BFGS Geometry Optimization

     number of scf cycles    =   1
     number of bfgs steps    =   0

     energy   new            =     -22.6493614580 Ry

     new trust radius        =       0.0064322006 bohr

     The maximum number of steps has been reached.

     End of BFGS Geometry Optimization

ATOMIC_POSITIONS (crystal)
Si            0.3333333300        0.6666666700        0.4921628958
Si            0.6666666700        0.3333333300        0.5328231162



     Writing output data file /home/jesus/Documentos/Nanociencia_DFT/test.save/
     NEW-OLD atomic charge density approx. for the potential

     negative rho (up, down):  1.580E-07 0.000E+00

     Writing output data file /home/jesus/Documentos/Nanociencia_DFT/test.save/
 
     init_run     :      1.69s CPU      1.86s WALL (       1 calls)
     electrons    :     17.69s CPU     18.80s WALL (       1 calls)
     update_pot   :      0.21s CPU      0.21s WALL (       1 calls)
     forces       :      0.66s CPU      0.76s WALL (       1 calls)

     Called by init_run:
     wfcinit      :      0.82s CPU      0.83s WALL (       1 calls)
     potinit      :      0.19s CPU      0.22s WALL (       1 calls)
     hinit0       :      0.32s CPU      0.35s WALL (       1 calls)

     Called by electrons:
     c_bands      :     13.28s CPU     13.32s WALL (       5 calls)
     sum_band     :      3.14s CPU      3.71s WALL (       5 calls)
     v_of_rho     :      0.67s CPU      0.72s WALL (       6 calls)
     newd         :      1.24s CPU      1.95s WALL (       6 calls)
     mix_rho      :      0.04s CPU      0.04s WALL (       5 calls)

     Called by c_bands:
     init_us_2    :      0.60s CPU      0.61s WALL (     528 calls)
     cegterg      :     10.67s CPU     10.70s WALL (     220 calls)

     Called by *egterg:
     cdiaghg      :      0.13s CPU      0.13s WALL (    1004 calls)
     h_psi        :      9.88s CPU      9.91s WALL (    1092 calls)
     s_psi        :      0.37s CPU      0.37s WALL (    1092 calls)
     g_psi        :      0.05s CPU      0.05s WALL (     828 calls)

     Called by h_psi:
     h_psi:calbec :      0.44s CPU      0.44s WALL (    1092 calls)
     vloc_psi     :      8.98s CPU      9.00s WALL (    1092 calls)
     add_vuspsi   :      0.41s CPU      0.41s WALL (    1092 calls)

     General routines
     calbec       :      0.64s CPU      0.65s WALL (    1488 calls)
     fft          :      0.32s CPU      0.34s WALL (      89 calls)
     ffts         :      0.01s CPU      0.01s WALL (      11 calls)
     fftw         :      9.21s CPU      9.24s WALL (   12586 calls)
     interpolate  :      0.03s CPU      0.04s WALL (       6 calls)
     davcio       :      0.01s CPU      0.01s WALL (      44 calls)
 
     Parallel routines
 
     PWSCF        :     21.10s CPU     22.66s WALL

 
   This run was terminated on:  11: 4:27  17Mar2021            

=------------------------------------------------------------------------------=
   JOB DONE.
=------------------------------------------------------------------------------=
