
     Program PWSCF v.6.6 starts on  2Apr2021 at 15:50:29 

     This program is part of the open-source Quantum ESPRESSO suite
     for quantum simulation of materials; please cite
         "P. Giannozzi et al., J. Phys.:Condens. Matter 21 395502 (2009);
         "P. Giannozzi et al., J. Phys.:Condens. Matter 29 465901 (2017);
          URL http://www.quantum-espresso.org", 
     in publications or presentations arising from this work. More details at
     http://www.quantum-espresso.org/quote

     Parallel version (MPI), running on     1 processors

     MPI processes distributed on     1 nodes
     Fft bands division:     nmany     =       1
     Waiting for input...
     Reading input from standard input
Warning: card &CELL ignored
Warning: card   CELL_DYNAMICS='BFGS', ignored
Warning: card   CELL_DOFREE='ALL', ignored
Warning: card / ignored

     Current dimensions of program PWSCF are:
     Max number of different atomic species (ntypx) = 10
     Max number of k-points (npk) =  40000
     Max angular momentum in pseudopotentials (lmaxx) =  3

     File /home/jesus/Documentos/Nanociencia_DFT/test.update deleted, as requested

     File /home/jesus/Documentos/Nanociencia_DFT/test.bfgs deleted, as requested

     Subspace diagonalization in iterative solution of the eigenvalue problem:
     a serial algorithm will be used

 
     G-vector sticks info
     --------------------
     sticks:   dense  smooth     PW     G-vecs:    dense   smooth      PW
     Sum         859     433    121                64221    22795    3655
 


     bravais-lattice index     =            4
     lattice parameter (alat)  =       7.2188  a.u.
     unit-cell volume          =    1023.3759 (a.u.)^3
     number of atoms/cell      =            2
     number of atomic types    =            1
     number of electrons       =         8.00
     number of Kohn-Sham states=            8
     kinetic-energy cutoff     =      30.0000  Ry
     charge density cutoff     =     240.0000  Ry
     convergence threshold     =      1.0E-06
     mixing beta               =       0.7000
     number of iterations used =            8  plain     mixing
     Exchange-correlation= PBE
                           (   1   4   3   4   0   0   0)
     nstep                     =            1


     celldm(1)=   7.218754  celldm(2)=   0.000000  celldm(3)=   3.141361
     celldm(4)=   0.000000  celldm(5)=   0.000000  celldm(6)=   0.000000

     crystal axes: (cart. coord. in units of alat)
               a(1) = (   1.000000   0.000000   0.000000 )  
               a(2) = (  -0.500000   0.866025   0.000000 )  
               a(3) = (   0.000000   0.000000   3.141361 )  

     reciprocal axes: (cart. coord. in units 2 pi/alat)
               b(1) = (  1.000000  0.577350  0.000000 )  
               b(2) = (  0.000000  1.154701  0.000000 )  
               b(3) = (  0.000000  0.000000  0.318333 )  


     PseudoPot. # 1 for Si read from file:
     /home/jesus/Documentos/Nanociencia_DFT/pseudopotenciales/Si.pbe-n-rrkjus_psl.1.0.0.UPF
     MD5 check sum: fa25574f73a70a4139f2adfbefec430c
     Pseudo is Ultrasoft + core correction, Zval =  4.0
     Generated using "atomic" code by A. Dal Corso v.6.3
     Using radial grid of 1141 points,  6 beta functions with: 
                l(1) =   0
                l(2) =   0
                l(3) =   1
                l(4) =   1
                l(5) =   2
                l(6) =   2
     Q(r) pseudized with 0 coefficients 


     atomic species   valence    mass     pseudopotential
        Si             4.00    28.08550     Si( 1.00)

      6 Sym. Ops. (no inversion) found



   Cartesian axes

     site n.     atom                  positions (alat units)
         1           Si  tau(   1) = (  -0.0000000   0.5773503   1.5451704  )
         2           Si  tau(   2) = (   0.5000000   0.2886751   1.6746809  )

     number of k points=     8  Methfessel-Paxton smearing, width (Ry)=  0.0100
                       cart. coord. in units 2pi/alat
        k(    1) = (   0.0000000   0.0000000   0.0000000), wk =   0.0408163
        k(    2) = (   0.0000000   0.1649572   0.0000000), wk =   0.2448980
        k(    3) = (   0.0000000   0.3299144   0.0000000), wk =   0.2448980
        k(    4) = (   0.0000000   0.4948717   0.0000000), wk =   0.2448980
        k(    5) = (   0.1428571   0.2474358   0.0000000), wk =   0.2448980
        k(    6) = (   0.1428571   0.4123930   0.0000000), wk =   0.4897959
        k(    7) = (   0.1428571   0.5773503   0.0000000), wk =   0.2448980
        k(    8) = (   0.2857143   0.4948717   0.0000000), wk =   0.2448980

     Dense  grid:    64221 G-vectors     FFT dimensions: (  36,  36, 120)

     Smooth grid:    22795 G-vectors     FFT dimensions: (  25,  25,  80)

     Estimated max dynamical RAM per process >     229.68 MB

     Initial potential from superposition of free atoms

     starting charge    7.99888, renormalised to    8.00000

     negative rho (up, down):  2.463E-06 0.000E+00
     Starting wfcs are    8 randomized atomic wfcs

     total cpu time spent up to now is        1.5 secs

     Self-consistent Calculation

     iteration #  1     ecut=    30.00 Ry     beta= 0.70
     Davidson diagonalization with overlap
     ethr =  1.00E-02,  avg # of iterations =  4.2

     Threshold (ethr) on eigenvalues was too large:
     Diagonalizing with lowered threshold

     Davidson diagonalization with overlap
     ethr =  8.22E-04,  avg # of iterations =  1.8

     negative rho (up, down):  9.543E-07 0.000E+00

     total cpu time spent up to now is        3.1 secs

     total energy              =     -22.73692453 Ry
     estimated scf accuracy    <       0.07173444 Ry

     iteration #  2     ecut=    30.00 Ry     beta= 0.70
     Davidson diagonalization with overlap
     ethr =  8.97E-04,  avg # of iterations =  2.5

     negative rho (up, down):  1.406E-06 0.000E+00

     total cpu time spent up to now is        4.1 secs

     total energy              =     -22.74477612 Ry
     estimated scf accuracy    <       0.00192034 Ry

     iteration #  3     ecut=    30.00 Ry     beta= 0.70
     Davidson diagonalization with overlap
     ethr =  2.40E-05,  avg # of iterations =  6.0

     negative rho (up, down):  1.948E-06 0.000E+00

     total cpu time spent up to now is        5.1 secs

     total energy              =     -22.74497028 Ry
     estimated scf accuracy    <       0.00012597 Ry

     iteration #  4     ecut=    30.00 Ry     beta= 0.70
     Davidson diagonalization with overlap
     ethr =  1.57E-06,  avg # of iterations =  4.0

     negative rho (up, down):  1.911E-06 0.000E+00

     total cpu time spent up to now is        6.1 secs

     total energy              =     -22.74498274 Ry
     estimated scf accuracy    <       0.00000279 Ry

     iteration #  5     ecut=    30.00 Ry     beta= 0.70
     Davidson diagonalization with overlap
     ethr =  3.49E-08,  avg # of iterations =  2.4

     negative rho (up, down):  1.901E-06 0.000E+00

     total cpu time spent up to now is        7.0 secs

     total energy              =     -22.74498380 Ry
     estimated scf accuracy    <       0.00000235 Ry

     iteration #  6     ecut=    30.00 Ry     beta= 0.70
     Davidson diagonalization with overlap
     ethr =  2.94E-08,  avg # of iterations =  1.2

     negative rho (up, down):  1.898E-06 0.000E+00

     total cpu time spent up to now is        7.9 secs

     End of self-consistent calculation

          k = 0.0000 0.0000 0.0000 (  2823 PWs)   bands (ev):

   -12.8373  -4.9395  -2.7930  -2.7930   0.5931   0.7584   1.4354   1.4354

          k = 0.0000 0.1650 0.0000 (  2851 PWs)   bands (ev):

   -12.5932  -4.8328  -4.1540  -3.1827   0.7301   0.9266   2.2888   2.3678

          k = 0.0000 0.3299 0.0000 (  2831 PWs)   bands (ev):

   -11.8798  -6.6012  -3.9418  -3.8067  -0.0446   0.7544   2.6471   4.1773

          k = 0.0000 0.4949 0.0000 (  2849 PWs)   bands (ev):

   -10.8391  -8.4619  -4.1827  -2.9871  -0.7778  -0.3280   3.4526   5.0023

          k = 0.1429 0.2474 0.0000 (  2835 PWs)   bands (ev):

   -12.1129  -5.8879  -4.1342  -4.0565   0.8840   1.5986   1.8317   2.8360

          k = 0.1429 0.4124 0.0000 (  2832 PWs)   bands (ev):

   -11.2002  -7.6804  -4.8873  -3.2896  -0.1044   1.1757   3.1196   3.6209

          k = 0.1429 0.5774 0.0000 (  2836 PWs)   bands (ev):

   -10.3420  -8.8877  -5.1637  -2.4958  -1.0998   0.9524   3.2554   4.4419

          k = 0.2857 0.4949 0.0000 (  2828 PWs)   bands (ev):

   -10.1692  -8.8053  -5.9541  -2.3160  -1.0653   2.5075   3.4350   3.9463

     the Fermi energy is    -1.2012 ev

!    total energy              =     -22.74498419 Ry
     estimated scf accuracy    <       0.00000005 Ry
     smearing contrib. (-TS)   =       0.00014964 Ry
     internal energy E=F+TS    =     -22.74513383 Ry

     The total energy is F=E-TS. E is the sum of the following terms:
     one-electron contribution =     -38.76316920 Ry
     hartree contribution      =      20.69323324 Ry
     xc contribution           =     -12.17128586 Ry
     ewald contribution        =       7.49608799 Ry

     convergence has been achieved in   6 iterations

     negative rho (up, down):  1.898E-06 0.000E+00

     Forces acting on atoms (cartesian axes, Ry/au):

     atom    1 type  1   force =     0.00000000    0.00000000   -0.00050308
     atom    2 type  1   force =     0.00000000    0.00000000    0.00050308

     Total force =     0.000711     Total SCF correction =     0.000085
     SCF correction compared to forces is large: reduce conv_thr to get better values

     BFGS Geometry Optimization

     bfgs converged in   1 scf cycles and   0 bfgs steps
     (criteria: energy <  1.0E-04 Ry, force <  1.0E-03 Ry/Bohr)

     End of BFGS Geometry Optimization

     Final energy   =     -22.7449841908 Ry
Begin final coordinates

ATOMIC_POSITIONS (crystal)
Si            0.3333333300        0.6666666700        0.4918792480
Si            0.6666666700        0.3333333300        0.5331067640
End final coordinates



     Writing output data file /home/jesus/Documentos/Nanociencia_DFT/test.save/
 
     init_run     :      0.63s CPU      0.79s WALL (       1 calls)
     electrons    :      5.17s CPU      6.41s WALL (       1 calls)
     forces       :      0.34s CPU      0.45s WALL (       1 calls)

     Called by init_run:
     wfcinit      :      0.10s CPU      0.11s WALL (       1 calls)
     potinit      :      0.11s CPU      0.12s WALL (       1 calls)
     hinit0       :      0.27s CPU      0.30s WALL (       1 calls)

     Called by electrons:
     c_bands      :      2.26s CPU      2.31s WALL (       7 calls)
     sum_band     :      1.58s CPU      2.18s WALL (       7 calls)
     v_of_rho     :      0.49s CPU      0.53s WALL (       7 calls)
     newd         :      0.96s CPU      1.62s WALL (       7 calls)
     mix_rho      :      0.04s CPU      0.05s WALL (       7 calls)

     Called by c_bands:
     init_us_2    :      0.11s CPU      0.12s WALL (     128 calls)
     cegterg      :      1.76s CPU      1.80s WALL (      56 calls)

     Called by *egterg:
     cdiaghg      :      0.03s CPU      0.03s WALL (     225 calls)
     h_psi        :      1.59s CPU      1.63s WALL (     241 calls)
     s_psi        :      0.06s CPU      0.06s WALL (     241 calls)
     g_psi        :      0.01s CPU      0.01s WALL (     177 calls)

     Called by h_psi:
     h_psi:calbec :      0.08s CPU      0.08s WALL (     241 calls)
     vloc_psi     :      1.44s CPU      1.47s WALL (     241 calls)
     add_vuspsi   :      0.07s CPU      0.07s WALL (     241 calls)

     General routines
     calbec       :      0.11s CPU      0.11s WALL (     329 calls)
     fft          :      0.20s CPU      0.22s WALL (     101 calls)
     ffts         :      0.01s CPU      0.01s WALL (      14 calls)
     fftw         :      1.48s CPU      1.52s WALL (    2996 calls)
     interpolate  :      0.02s CPU      0.02s WALL (       7 calls)
 
     Parallel routines
 
     PWSCF        :      6.85s CPU      8.39s WALL

 
   This run was terminated on:  15:50:37   2Apr2021            

=------------------------------------------------------------------------------=
   JOB DONE.
=------------------------------------------------------------------------------=
