
     Program PWSCF v.6.6 starts on  2Apr2021 at 15:51: 7 

     This program is part of the open-source Quantum ESPRESSO suite
     for quantum simulation of materials; please cite
         "P. Giannozzi et al., J. Phys.:Condens. Matter 21 395502 (2009);
         "P. Giannozzi et al., J. Phys.:Condens. Matter 29 465901 (2017);
          URL http://www.quantum-espresso.org", 
     in publications or presentations arising from this work. More details at
     http://www.quantum-espresso.org/quote

     Parallel version (MPI), running on     1 processors

     MPI processes distributed on     1 nodes
     Fft bands division:     nmany     =       1
     Waiting for input...
     Reading input from standard input
Warning: card &CELL ignored
Warning: card   CELL_DYNAMICS='BFGS', ignored
Warning: card   CELL_DOFREE='ALL', ignored
Warning: card / ignored

     Current dimensions of program PWSCF are:
     Max number of different atomic species (ntypx) = 10
     Max number of k-points (npk) =  40000
     Max angular momentum in pseudopotentials (lmaxx) =  3

     File /home/jesus/Documentos/Nanociencia_DFT/test.update deleted, as requested

     File /home/jesus/Documentos/Nanociencia_DFT/test.bfgs deleted, as requested

     Subspace diagonalization in iterative solution of the eigenvalue problem:
     a serial algorithm will be used

 
     G-vector sticks info
     --------------------
     sticks:   dense  smooth     PW     G-vecs:    dense   smooth      PW
     Sum         871     439    127                65577    23149    3757
 


     bravais-lattice index     =            4
     lattice parameter (alat)  =       7.2943  a.u.
     unit-cell volume          =    1044.9201 (a.u.)^3
     number of atoms/cell      =            2
     number of atomic types    =            1
     number of electrons       =         8.00
     number of Kohn-Sham states=            8
     kinetic-energy cutoff     =      30.0000  Ry
     charge density cutoff     =     240.0000  Ry
     convergence threshold     =      1.0E-06
     mixing beta               =       0.7000
     number of iterations used =            8  plain     mixing
     Exchange-correlation= PBE
                           (   1   4   3   4   0   0   0)
     nstep                     =            1


     celldm(1)=   7.294343  celldm(2)=   0.000000  celldm(3)=   3.108808
     celldm(4)=   0.000000  celldm(5)=   0.000000  celldm(6)=   0.000000

     crystal axes: (cart. coord. in units of alat)
               a(1) = (   1.000000   0.000000   0.000000 )  
               a(2) = (  -0.500000   0.866025   0.000000 )  
               a(3) = (   0.000000   0.000000   3.108808 )  

     reciprocal axes: (cart. coord. in units 2 pi/alat)
               b(1) = (  1.000000  0.577350  0.000000 )  
               b(2) = (  0.000000  1.154701  0.000000 )  
               b(3) = (  0.000000  0.000000  0.321667 )  


     PseudoPot. # 1 for Si read from file:
     /home/jesus/Documentos/Nanociencia_DFT/pseudopotenciales/Si.pbe-n-rrkjus_psl.1.0.0.UPF
     MD5 check sum: fa25574f73a70a4139f2adfbefec430c
     Pseudo is Ultrasoft + core correction, Zval =  4.0
     Generated using "atomic" code by A. Dal Corso v.6.3
     Using radial grid of 1141 points,  6 beta functions with: 
                l(1) =   0
                l(2) =   0
                l(3) =   1
                l(4) =   1
                l(5) =   2
                l(6) =   2
     Q(r) pseudized with 0 coefficients 


     atomic species   valence    mass     pseudopotential
        Si             4.00    28.08550     Si( 1.00)

      6 Sym. Ops. (no inversion) found



   Cartesian axes

     site n.     atom                  positions (alat units)
         1           Si  tau(   1) = (  -0.0000000   0.5773503   1.5291583  )
         2           Si  tau(   2) = (   0.5000000   0.2886751   1.6573267  )

     number of k points=     8  Methfessel-Paxton smearing, width (Ry)=  0.0100
                       cart. coord. in units 2pi/alat
        k(    1) = (   0.0000000   0.0000000   0.0000000), wk =   0.0408163
        k(    2) = (   0.0000000   0.1649572   0.0000000), wk =   0.2448980
        k(    3) = (   0.0000000   0.3299144   0.0000000), wk =   0.2448980
        k(    4) = (   0.0000000   0.4948717   0.0000000), wk =   0.2448980
        k(    5) = (   0.1428571   0.2474358   0.0000000), wk =   0.2448980
        k(    6) = (   0.1428571   0.4123930   0.0000000), wk =   0.4897959
        k(    7) = (   0.1428571   0.5773503   0.0000000), wk =   0.2448980
        k(    8) = (   0.2857143   0.4948717   0.0000000), wk =   0.2448980

     Dense  grid:    65577 G-vectors     FFT dimensions: (  36,  36, 120)

     Smooth grid:    23149 G-vectors     FFT dimensions: (  25,  25,  80)

     Estimated max dynamical RAM per process >     234.27 MB

     Initial potential from superposition of free atoms

     starting charge    7.99888, renormalised to    8.00000

     negative rho (up, down):  2.402E-06 0.000E+00
     Starting wfcs are    8 randomized atomic wfcs

     total cpu time spent up to now is        1.7 secs

     Self-consistent Calculation

     iteration #  1     ecut=    30.00 Ry     beta= 0.70
     Davidson diagonalization with overlap
     ethr =  1.00E-02,  avg # of iterations =  4.1

     Threshold (ethr) on eigenvalues was too large:
     Diagonalizing with lowered threshold

     Davidson diagonalization with overlap
     ethr =  7.56E-04,  avg # of iterations =  1.9

     negative rho (up, down):  9.532E-07 0.000E+00

     total cpu time spent up to now is        3.3 secs

     total energy              =     -22.73865953 Ry
     estimated scf accuracy    <       0.06622016 Ry

     iteration #  2     ecut=    30.00 Ry     beta= 0.70
     Davidson diagonalization with overlap
     ethr =  8.28E-04,  avg # of iterations =  2.5

     negative rho (up, down):  1.449E-06 0.000E+00

     total cpu time spent up to now is        4.2 secs

     total energy              =     -22.74548707 Ry
     estimated scf accuracy    <       0.00187784 Ry

     iteration #  3     ecut=    30.00 Ry     beta= 0.70
     Davidson diagonalization with overlap
     ethr =  2.35E-05,  avg # of iterations =  6.5

     negative rho (up, down):  1.950E-06 0.000E+00

     total cpu time spent up to now is        5.3 secs

     total energy              =     -22.74568246 Ry
     estimated scf accuracy    <       0.00011627 Ry

     iteration #  4     ecut=    30.00 Ry     beta= 0.70
     Davidson diagonalization with overlap
     ethr =  1.45E-06,  avg # of iterations =  3.8

     negative rho (up, down):  1.927E-06 0.000E+00

     total cpu time spent up to now is        6.3 secs

     End of self-consistent calculation

          k = 0.0000 0.0000 0.0000 (  2895 PWs)   bands (ev):

   -12.7819  -4.9302  -2.9000  -2.9000   0.2367   0.7280   1.3127   1.3127

          k = 0.0000 0.1650 0.0000 (  2913 PWs)   bands (ev):

   -12.5438  -4.8729  -4.2149  -3.2757   0.5535   0.8742   2.0945   2.1421

          k = 0.0000 0.3299 0.0000 (  2913 PWs)   bands (ev):

   -11.8486  -6.6758  -3.9455  -3.8814  -0.1795   0.6540   2.5853   3.9855

          k = 0.0000 0.4949 0.0000 (  2917 PWs)   bands (ev):

   -10.8388  -8.4887  -4.2476  -3.0241  -0.8597  -0.4353   3.3881   4.8570

          k = 0.1429 0.2474 0.0000 (  2907 PWs)   bands (ev):

   -12.0756  -5.9863  -4.1312  -4.1159   0.7882   1.4814   1.5958   2.7509

          k = 0.1429 0.4124 0.0000 (  2886 PWs)   bands (ev):

   -11.1872  -7.7397  -4.9224  -3.3108  -0.2039   1.0222   3.0612   3.4887

          k = 0.1429 0.5774 0.0000 (  2894 PWs)   bands (ev):

   -10.3580  -8.9098  -5.1928  -2.5452  -1.1642   0.8021   3.1764   4.3523

          k = 0.2857 0.4949 0.0000 (  2882 PWs)   bands (ev):

   -10.1846  -8.8512  -5.9465  -2.3645  -1.1451   2.4546   3.2839   3.6929

     the Fermi energy is    -1.2704 ev

!    total energy              =     -22.74569668 Ry
     estimated scf accuracy    <       0.00000081 Ry
     smearing contrib. (-TS)   =       0.00014500 Ry
     internal energy E=F+TS    =     -22.74584168 Ry

     The total energy is F=E-TS. E is the sum of the following terms:
     one-electron contribution =     -37.95887798 Ry
     hartree contribution      =      20.26620343 Ry
     xc contribution           =     -12.14112817 Ry
     ewald contribution        =       7.08796105 Ry

     convergence has been achieved in   4 iterations

     negative rho (up, down):  1.927E-06 0.000E+00

     Forces acting on atoms (cartesian axes, Ry/au):

     atom    1 type  1   force =     0.00000000    0.00000000    0.00283822
     atom    2 type  1   force =     0.00000000    0.00000000   -0.00283822

     Total force =     0.004014     Total SCF correction =     0.000317

     BFGS Geometry Optimization

     number of scf cycles    =   1
     number of bfgs steps    =   0

     energy   new            =     -22.7456966781 Ry

     new trust radius        =       0.0028382230 bohr

     The maximum number of steps has been reached.

     End of BFGS Geometry Optimization

ATOMIC_POSITIONS (crystal)
Si            0.3333333300        0.6666666700        0.4920044082
Si            0.6666666700        0.3333333300        0.5329816038



     Writing output data file /home/jesus/Documentos/Nanociencia_DFT/test.save/
     NEW-OLD atomic charge density approx. for the potential

     negative rho (up, down):  1.923E-06 0.000E+00

     Writing output data file /home/jesus/Documentos/Nanociencia_DFT/test.save/
 
     init_run     :      0.85s CPU      1.00s WALL (       1 calls)
     electrons    :      3.81s CPU      4.60s WALL (       1 calls)
     update_pot   :      0.15s CPU      0.16s WALL (       1 calls)
     forces       :      0.38s CPU      0.46s WALL (       1 calls)

     Called by init_run:
     wfcinit      :      0.13s CPU      0.13s WALL (       1 calls)
     potinit      :      0.15s CPU      0.16s WALL (       1 calls)
     hinit0       :      0.32s CPU      0.35s WALL (       1 calls)

     Called by electrons:
     c_bands      :      1.71s CPU      1.74s WALL (       5 calls)
     sum_band     :      1.17s CPU      1.56s WALL (       5 calls)
     v_of_rho     :      0.45s CPU      0.47s WALL (       6 calls)
     newd         :      0.99s CPU      1.51s WALL (       6 calls)
     mix_rho      :      0.03s CPU      0.03s WALL (       5 calls)

     Called by c_bands:
     init_us_2    :      0.09s CPU      0.09s WALL (      96 calls)
     cegterg      :      1.34s CPU      1.37s WALL (      40 calls)

     Called by *egterg:
     cdiaghg      :      0.02s CPU      0.02s WALL (     182 calls)
     h_psi        :      1.25s CPU      1.27s WALL (     198 calls)
     s_psi        :      0.05s CPU      0.05s WALL (     198 calls)
     g_psi        :      0.01s CPU      0.01s WALL (     150 calls)

     Called by h_psi:
     h_psi:calbec :      0.06s CPU      0.06s WALL (     198 calls)
     vloc_psi     :      1.12s CPU      1.14s WALL (     198 calls)
     add_vuspsi   :      0.05s CPU      0.06s WALL (     198 calls)

     General routines
     calbec       :      0.09s CPU      0.09s WALL (     270 calls)
     fft          :      0.19s CPU      0.22s WALL (      89 calls)
     ffts         :      0.01s CPU      0.01s WALL (      11 calls)
     fftw         :      1.14s CPU      1.17s WALL (    2278 calls)
     interpolate  :      0.02s CPU      0.02s WALL (       6 calls)
     davcio       :      0.00s CPU      0.00s WALL (       8 calls)
 
     Parallel routines
 
     PWSCF        :      6.03s CPU      7.15s WALL

 
   This run was terminated on:  15:51:14   2Apr2021            

=------------------------------------------------------------------------------=
   JOB DONE.
=------------------------------------------------------------------------------=
