
     Program PWSCF v.6.6 starts on 17Mar2021 at 11: 1:19 

     This program is part of the open-source Quantum ESPRESSO suite
     for quantum simulation of materials; please cite
         "P. Giannozzi et al., J. Phys.:Condens. Matter 21 395502 (2009);
         "P. Giannozzi et al., J. Phys.:Condens. Matter 29 465901 (2017);
          URL http://www.quantum-espresso.org", 
     in publications or presentations arising from this work. More details at
     http://www.quantum-espresso.org/quote

     Parallel version (MPI), running on     1 processors

     MPI processes distributed on     1 nodes
     Fft bands division:     nmany     =       1
     Waiting for input...
     Reading input from standard input
Warning: card &CELL ignored
Warning: card   CELL_DYNAMICS='BFGS', ignored
Warning: card   CELL_DOFREE='ALL', ignored
Warning: card / ignored

     Current dimensions of program PWSCF are:
     Max number of different atomic species (ntypx) = 10
     Max number of k-points (npk) =  40000
     Max angular momentum in pseudopotentials (lmaxx) =  3

     File /home/jesus/Documentos/Nanociencia_DFT/test.update deleted, as requested

     File /home/jesus/Documentos/Nanociencia_DFT/test.bfgs deleted, as requested

     Subspace diagonalization in iterative solution of the eigenvalue problem:
     a serial algorithm will be used

 
     G-vector sticks info
     --------------------
     sticks:   dense  smooth     PW     G-vecs:    dense   smooth      PW
     Sum         805     409    121                60267    21235    3583
 


     bravais-lattice index     =            4
     lattice parameter (alat)  =       6.9920  a.u.
     unit-cell volume          =     960.0900 (a.u.)^3
     number of atoms/cell      =            2
     number of atomic types    =            1
     number of electrons       =         8.00
     number of Kohn-Sham states=            8
     kinetic-energy cutoff     =      30.0000  Ry
     charge density cutoff     =     240.0000  Ry
     convergence threshold     =      1.0E-06
     mixing beta               =       0.7000
     number of iterations used =            8  plain     mixing
     Exchange-correlation= PBE
                           (   1   4   3   4   0   0   0)
     nstep                     =            1


     celldm(1)=   6.991987  celldm(2)=   0.000000  celldm(3)=   3.243243
     celldm(4)=   0.000000  celldm(5)=   0.000000  celldm(6)=   0.000000

     crystal axes: (cart. coord. in units of alat)
               a(1) = (   1.000000   0.000000   0.000000 )  
               a(2) = (  -0.500000   0.866025   0.000000 )  
               a(3) = (   0.000000   0.000000   3.243243 )  

     reciprocal axes: (cart. coord. in units 2 pi/alat)
               b(1) = (  1.000000  0.577350  0.000000 )  
               b(2) = (  0.000000  1.154701  0.000000 )  
               b(3) = (  0.000000  0.000000  0.308333 )  


     PseudoPot. # 1 for Si read from file:
     /home/jesus/Documentos/Nanociencia_DFT/pseudopotenciales/Si.pbe-n-rrkjus_psl.1.0.0.UPF
     MD5 check sum: fa25574f73a70a4139f2adfbefec430c
     Pseudo is Ultrasoft + core correction, Zval =  4.0
     Generated using "atomic" code by A. Dal Corso v.6.3
     Using radial grid of 1141 points,  6 beta functions with: 
                l(1) =   0
                l(2) =   0
                l(3) =   1
                l(4) =   1
                l(5) =   2
                l(6) =   2
     Q(r) pseudized with 0 coefficients 


     atomic species   valence    mass     pseudopotential
        Si             4.00    28.08550     Si( 1.00)

      6 Sym. Ops. (no inversion) found



   Cartesian axes

     site n.     atom                  positions (alat units)
         1           Si  tau(   1) = (  -0.0000000   0.5773503   1.5952840  )
         2           Si  tau(   2) = (   0.5000000   0.2886751   1.7289949  )

     number of k points=    44  Methfessel-Paxton smearing, width (Ry)=  0.0100
                       cart. coord. in units 2pi/alat
        k(    1) = (   0.0000000   0.0000000   0.0000000), wk =   0.0058309
        k(    2) = (   0.0000000   0.0000000   0.0440476), wk =   0.0116618
        k(    3) = (   0.0000000   0.0000000   0.0880952), wk =   0.0116618
        k(    4) = (   0.0000000   0.0000000   0.1321429), wk =   0.0116618
        k(    5) = (   0.0000000   0.1649572   0.0000000), wk =   0.0349854
        k(    6) = (   0.0000000   0.1649572   0.0440476), wk =   0.0349854
        k(    7) = (   0.0000000   0.1649572   0.0880952), wk =   0.0349854
        k(    8) = (   0.0000000   0.1649572   0.1321429), wk =   0.0349854
        k(    9) = (   0.0000000   0.3299144   0.0000000), wk =   0.0349854
        k(   10) = (   0.0000000   0.3299144   0.0440476), wk =   0.0349854
        k(   11) = (   0.0000000   0.3299144   0.0880952), wk =   0.0349854
        k(   12) = (   0.0000000   0.3299144   0.1321429), wk =   0.0349854
        k(   13) = (   0.0000000   0.4948717   0.0000000), wk =   0.0349854
        k(   14) = (   0.0000000   0.4948717   0.0440476), wk =   0.0349854
        k(   15) = (   0.0000000   0.4948717   0.0880952), wk =   0.0349854
        k(   16) = (   0.0000000   0.4948717   0.1321429), wk =   0.0349854
        k(   17) = (   0.1428571   0.2474358   0.0000000), wk =   0.0349854
        k(   18) = (   0.1428571   0.2474358   0.0440476), wk =   0.0699708
        k(   19) = (   0.1428571   0.2474358   0.0880952), wk =   0.0699708
        k(   20) = (   0.1428571   0.2474358   0.1321429), wk =   0.0699708
        k(   21) = (   0.1428571   0.4123930   0.0000000), wk =   0.0699708
        k(   22) = (   0.1428571   0.4123930   0.0440476), wk =   0.0699708
        k(   23) = (   0.1428571   0.4123930   0.0880952), wk =   0.0699708
        k(   24) = (   0.1428571   0.4123930   0.1321429), wk =   0.0699708
        k(   25) = (   0.1428571   0.5773503   0.0000000), wk =   0.0349854
        k(   26) = (   0.1428571   0.5773503   0.0440476), wk =   0.0699708
        k(   27) = (   0.1428571   0.5773503   0.0880952), wk =   0.0699708
        k(   28) = (   0.1428571   0.5773503   0.1321429), wk =   0.0699708
        k(   29) = (   0.2857143   0.4948717   0.0000000), wk =   0.0349854
        k(   30) = (   0.2857143   0.4948717   0.0440476), wk =   0.0699708
        k(   31) = (   0.2857143   0.4948717   0.0880952), wk =   0.0699708
        k(   32) = (   0.2857143   0.4948717   0.1321429), wk =   0.0699708
        k(   33) = (   0.0000000  -0.1649572   0.0440476), wk =   0.0349854
        k(   34) = (   0.0000000  -0.1649572   0.0880952), wk =   0.0349854
        k(   35) = (   0.0000000  -0.1649572   0.1321429), wk =   0.0349854
        k(   36) = (   0.0000000  -0.3299144   0.0440476), wk =   0.0349854
        k(   37) = (   0.0000000  -0.3299144   0.0880952), wk =   0.0349854
        k(   38) = (   0.0000000  -0.3299144   0.1321429), wk =   0.0349854
        k(   39) = (   0.0000000  -0.4948717   0.0440476), wk =   0.0349854
        k(   40) = (   0.0000000  -0.4948717   0.0880952), wk =   0.0349854
        k(   41) = (   0.0000000  -0.4948717   0.1321429), wk =   0.0349854
        k(   42) = (  -0.1428571  -0.4123930   0.0440476), wk =   0.0699708
        k(   43) = (  -0.1428571  -0.4123930   0.0880952), wk =   0.0699708
        k(   44) = (  -0.1428571  -0.4123930   0.1321429), wk =   0.0699708

     Dense  grid:    60267 G-vectors     FFT dimensions: (  36,  36, 120)

     Smooth grid:    21235 G-vectors     FFT dimensions: (  25,  25,  80)

     Estimated max dynamical RAM per process >     227.97 MB

     Initial potential from superposition of free atoms

     starting charge    7.99888, renormalised to    8.00000

     negative rho (up, down):  2.360E-06 0.000E+00
     Starting wfcs are    8 randomized atomic wfcs

     total cpu time spent up to now is        2.0 secs

     Self-consistent Calculation

     iteration #  1     ecut=    30.00 Ry     beta= 0.70
     Davidson diagonalization with overlap
     ethr =  1.00E-02,  avg # of iterations =  4.9

     total cpu time spent up to now is        4.9 secs

     total energy              =     -22.72321326 Ry
     estimated scf accuracy    <       0.08452923 Ry

     iteration #  2     ecut=    30.00 Ry     beta= 0.70
     Davidson diagonalization with overlap
     ethr =  1.06E-03,  avg # of iterations =  2.8

     negative rho (up, down):  1.950E-07 0.000E+00

     total cpu time spent up to now is        7.2 secs

     total energy              =     -22.73339062 Ry
     estimated scf accuracy    <       0.00189764 Ry

     iteration #  3     ecut=    30.00 Ry     beta= 0.70
     Davidson diagonalization with overlap
     ethr =  2.37E-05,  avg # of iterations =  8.3

     negative rho (up, down):  6.025E-07 0.000E+00

     total cpu time spent up to now is       10.3 secs

     total energy              =     -22.73358336 Ry
     estimated scf accuracy    <       0.00014209 Ry

     iteration #  4     ecut=    30.00 Ry     beta= 0.70
     Davidson diagonalization with overlap
     c_bands:  1 eigenvalues not converged
     ethr =  1.78E-06,  avg # of iterations =  4.8

     negative rho (up, down):  6.606E-07 0.000E+00

     total cpu time spent up to now is       12.9 secs

     total energy              =     -22.73359492 Ry
     estimated scf accuracy    <       0.00000306 Ry

     iteration #  5     ecut=    30.00 Ry     beta= 0.70
     Davidson diagonalization with overlap
     ethr =  3.83E-08,  avg # of iterations =  2.9

     negative rho (up, down):  6.929E-07 0.000E+00

     total cpu time spent up to now is       15.3 secs

     total energy              =     -22.73359608 Ry
     estimated scf accuracy    <       0.00000281 Ry

     iteration #  6     ecut=    30.00 Ry     beta= 0.70
     Davidson diagonalization with overlap
     ethr =  3.51E-08,  avg # of iterations =  1.2

     negative rho (up, down):  7.044E-07 0.000E+00

     total cpu time spent up to now is       17.3 secs

     End of self-consistent calculation

          k = 0.0000 0.0000 0.0000 (  2631 PWs)   bands (ev):

   -13.0262  -4.9882  -2.4514  -2.4514   0.8439   1.7108   1.8122   1.8122

          k = 0.0000 0.0000 0.0440 (  2631 PWs)   bands (ev):

   -13.0262  -4.9882  -2.4514  -2.4514   0.8512   1.7107   1.8122   1.8122

          k = 0.0000 0.0000 0.0881 (  2626 PWs)   bands (ev):

   -13.0262  -4.9882  -2.4514  -2.4514   0.8682   1.7106   1.8122   1.8122

          k = 0.0000 0.0000 0.1321 (  2614 PWs)   bands (ev):

   -13.0262  -4.9883  -2.4514  -2.4514   0.8824   1.7104   1.8122   1.8122

          k = 0.0000 0.1650 0.0000 (  2657 PWs)   bands (ev):

   -12.7629  -4.7832  -3.9106  -2.8870   1.0238   1.2620   2.7438   3.2345

          k = 0.0000 0.1650 0.0440 (  2653 PWs)   bands (ev):

   -12.7629  -4.7832  -3.9106  -2.8870   1.0291   1.2626   2.7438   3.1727

          k = 0.0000 0.1650 0.0881 (  2656 PWs)   bands (ev):

   -12.7629  -4.7832  -3.9106  -2.8870   1.0414   1.2644   2.7438   2.9684

          k = 0.0000 0.1650 0.1321 (  2644 PWs)   bands (ev):

   -12.7629  -4.7832  -3.9106  -2.8870   1.0516   1.2661   2.7439   2.8544

          k = 0.0000 0.3299 0.0000 (  2656 PWs)   bands (ev):

   -11.9914  -6.3801  -3.9411  -3.5699   0.3605   1.0511   2.8460   4.7752

          k = 0.0000 0.3299 0.0440 (  2655 PWs)   bands (ev):

   -11.9914  -6.3801  -3.9411  -3.5699   0.3605   1.0516   2.8692   4.7748

          k = 0.0000 0.3299 0.0881 (  2652 PWs)   bands (ev):

   -11.9914  -6.3801  -3.9411  -3.5699   0.3606   1.0534   2.9088   3.8495

          k = 0.0000 0.3299 0.1321 (  2656 PWs)   bands (ev):

   -11.9914  -6.3801  -3.9412  -3.5699   0.3606   1.0551   2.9367   4.7750

          k = 0.0000 0.4949 0.0000 (  2660 PWs)   bands (ev):

   -10.8511  -8.3944  -3.9766  -2.8801  -0.5388   0.0021   3.6553   5.4438

          k = 0.0000 0.4949 0.0440 (  2662 PWs)   bands (ev):

   -10.8511  -8.3945  -3.9766  -2.8801  -0.5389   0.0021   3.6672   5.4437

          k = 0.0000 0.4949 0.0881 (  2676 PWs)   bands (ev):

   -10.8511  -8.3945  -3.9766  -2.8801  -0.5389   0.0021   3.6860   5.4438

          k = 0.0000 0.4949 0.1321 (  2680 PWs)   bands (ev):

   -10.8511  -8.3945  -3.9766  -2.8801  -0.5389   0.0021   3.6977   5.4436

          k = 0.1429 0.2474 0.0000 (  2656 PWs)   bands (ev):

   -12.2441  -5.5881  -4.1555  -3.8721   1.1543   1.9689   2.5399   3.1179

          k = 0.1429 0.2474 0.0440 (  2659 PWs)   bands (ev):

   -12.2441  -5.5881  -4.1555  -3.8721   1.1563   1.9701   2.5399   3.1321

          k = 0.1429 0.2474 0.0881 (  2652 PWs)   bands (ev):

   -12.2441  -5.5881  -4.1555  -3.8721   1.1609   1.9728   2.5399   3.1763

          k = 0.1429 0.2474 0.1321 (  2658 PWs)   bands (ev):

   -12.2441  -5.5881  -4.1556  -3.8721   1.1645   1.9750   2.5398   3.2462

          k = 0.1429 0.4124 0.0000 (  2669 PWs)   bands (ev):

   -11.2537  -7.5061  -4.7791  -3.2327   0.2000   1.6384   3.3000   3.9775

          k = 0.1429 0.4124 0.0440 (  2665 PWs)   bands (ev):

   -11.2537  -7.5061  -4.7791  -3.2327   0.2000   1.6384   3.3157   3.9646

          k = 0.1429 0.4124 0.0881 (  2666 PWs)   bands (ev):

   -11.2537  -7.5061  -4.7791  -3.2328   0.2001   1.6385   3.3411   3.9596

          k = 0.1429 0.4124 0.1321 (  2669 PWs)   bands (ev):

   -11.2537  -7.5061  -4.7791  -3.2328   0.2001   1.6385   3.3566   3.9695

          k = 0.1429 0.5774 0.0000 (  2676 PWs)   bands (ev):

   -10.2997  -8.8365  -5.0732  -2.3470  -0.9088   1.4091   3.4984   4.7235

          k = 0.1429 0.5774 0.0440 (  2674 PWs)   bands (ev):

   -10.2997  -8.8365  -5.0732  -2.3470  -0.9088   1.4091   3.4984   4.7298

          k = 0.1429 0.5774 0.0881 (  2672 PWs)   bands (ev):

   -10.2997  -8.8365  -5.0732  -2.3470  -0.9088   1.4091   3.4983   4.7441

          k = 0.1429 0.5774 0.1321 (  2663 PWs)   bands (ev):

   -10.2997  -8.8365  -5.0732  -2.3470  -0.9088   1.4092   3.4984   4.7565

          k = 0.2857 0.4949 0.0000 (  2678 PWs)   bands (ev):

   -10.1309  -8.6688  -5.9882  -2.1708  -0.8196   2.6621   3.8955   4.7093

          k = 0.2857 0.4949 0.0440 (  2687 PWs)   bands (ev):

   -10.1309  -8.6688  -5.9882  -2.1708  -0.8196   2.6620   3.8956   4.7095

          k = 0.2857 0.4949 0.0881 (  2686 PWs)   bands (ev):

   -10.1309  -8.6688  -5.9882  -2.1708  -0.8196   2.6616   3.8958   4.7095

          k = 0.2857 0.4949 0.1321 (  2690 PWs)   bands (ev):

   -10.1309  -8.6688  -5.9882  -2.1709  -0.8196   2.6614   3.8959   4.7097

          k = 0.0000-0.1650 0.0440 (  2653 PWs)   bands (ev):

   -12.7629  -4.7832  -3.9106  -2.8870   1.0293   1.2628   2.7438   3.1046

          k = 0.0000-0.1650 0.0881 (  2656 PWs)   bands (ev):

   -12.7629  -4.7832  -3.9106  -2.8870   1.0416   1.2646   2.7438   2.9416

          k = 0.0000-0.1650 0.1321 (  2644 PWs)   bands (ev):

   -12.7629  -4.7832  -3.9106  -2.8870   1.0516   1.2662   2.7438   2.8467

          k = 0.0000-0.3299 0.0440 (  2655 PWs)   bands (ev):

   -11.9914  -6.3801  -3.9411  -3.5699   0.3606   1.0523   2.8513   4.7752

          k = 0.0000-0.3299 0.0881 (  2652 PWs)   bands (ev):

   -11.9914  -6.3801  -3.9411  -3.5699   0.3606   1.0542   2.8831   4.7751

          k = 0.0000-0.3299 0.1321 (  2656 PWs)   bands (ev):

   -11.9914  -6.3801  -3.9412  -3.5699   0.3606   1.0554   2.9230   3.7709

          k = 0.0000-0.4949 0.0440 (  2662 PWs)   bands (ev):

   -10.8511  -8.3945  -3.9766  -2.8801  -0.5388   0.0021   3.6585   5.4438

          k = 0.0000-0.4949 0.0881 (  2676 PWs)   bands (ev):

   -10.8511  -8.3945  -3.9766  -2.8801  -0.5388   0.0021   3.6746   5.4438

          k = 0.0000-0.4949 0.1321 (  2680 PWs)   bands (ev):

   -10.8511  -8.3945  -3.9766  -2.8801  -0.5389   0.0021   3.6923   5.4435

          k =-0.1429-0.4124 0.0440 (  2665 PWs)   bands (ev):

   -11.2537  -7.5061  -4.7791  -3.2327   0.2001   1.6384   3.3038   3.9908

          k =-0.1429-0.4124 0.0881 (  2666 PWs)   bands (ev):

   -11.2537  -7.5061  -4.7791  -3.2327   0.2002   1.6385   3.3246   3.9968

          k =-0.1429-0.4124 0.1321 (  2669 PWs)   bands (ev):

   -11.2537  -7.5061  -4.7791  -3.2328   0.2002   1.6385   3.3486   3.9884

     the Fermi energy is    -1.0071 ev

!    total energy              =     -22.73359655 Ry
     estimated scf accuracy    <       0.00000001 Ry
     smearing contrib. (-TS)   =       0.00015373 Ry
     internal energy E=F+TS    =     -22.73375028 Ry

     The total energy is F=E-TS. E is the sum of the following terms:
     one-electron contribution =     -41.35811789 Ry
     hartree contribution      =      22.07604163 Ry
     xc contribution           =     -12.26876070 Ry
     ewald contribution        =       8.81708669 Ry

     convergence has been achieved in   6 iterations

     negative rho (up, down):  7.044E-07 0.000E+00

     Forces acting on atoms (cartesian axes, Ry/au):

     atom    1 type  1   force =     0.00000000    0.00000000   -0.01482962
     atom    2 type  1   force =     0.00000000    0.00000000    0.01482962

     Total force =     0.020972     Total SCF correction =     0.000040

     BFGS Geometry Optimization

     number of scf cycles    =   1
     number of bfgs steps    =   0

     energy   new            =     -22.7335965525 Ry

     new trust radius        =       0.0148296172 bohr

     The maximum number of steps has been reached.

     End of BFGS Geometry Optimization

ATOMIC_POSITIONS (crystal)
Si            0.3333333300        0.6666666700        0.4912252900
Si            0.6666666700        0.3333333300        0.5337607220



     Writing output data file /home/jesus/Documentos/Nanociencia_DFT/test.save/
     NEW-OLD atomic charge density approx. for the potential

     negative rho (up, down):  7.157E-07 0.000E+00

     Writing output data file /home/jesus/Documentos/Nanociencia_DFT/test.save/
 
     init_run     :      1.16s CPU      1.32s WALL (       1 calls)
     electrons    :     14.32s CPU     15.33s WALL (       1 calls)
     update_pot   :      0.15s CPU      0.15s WALL (       1 calls)
     forces       :      0.46s CPU      0.51s WALL (       1 calls)

     Called by init_run:
     wfcinit      :      0.53s CPU      0.55s WALL (       1 calls)
     potinit      :      0.12s CPU      0.14s WALL (       1 calls)
     hinit0       :      0.29s CPU      0.32s WALL (       1 calls)

     Called by electrons:
     c_bands      :     10.67s CPU     10.71s WALL (       6 calls)
     sum_band     :      2.45s CPU      2.89s WALL (       6 calls)
     v_of_rho     :      0.56s CPU      0.59s WALL (       8 calls)
     newd         :      1.04s CPU      1.70s WALL (       8 calls)
     mix_rho      :      0.04s CPU      0.04s WALL (       6 calls)

     Called by c_bands:
     init_us_2    :      0.47s CPU      0.48s WALL (     616 calls)
     cegterg      :      8.54s CPU      8.58s WALL (     264 calls)

     Called by *egterg:
     cdiaghg      :      0.16s CPU      0.16s WALL (    1363 calls)
     h_psi        :      7.75s CPU      7.80s WALL (    1407 calls)
     s_psi        :      0.28s CPU      0.28s WALL (    1407 calls)
     g_psi        :      0.04s CPU      0.04s WALL (    1099 calls)

     Called by h_psi:
     h_psi:calbec :      0.36s CPU      0.36s WALL (    1407 calls)
     vloc_psi     :      7.04s CPU      7.08s WALL (    1407 calls)
     add_vuspsi   :      0.31s CPU      0.32s WALL (    1407 calls)

     General routines
     calbec       :      0.50s CPU      0.50s WALL (    1847 calls)
     fft          :      0.23s CPU      0.25s WALL (     114 calls)
     ffts         :      0.01s CPU      0.01s WALL (      14 calls)
     fftw         :      7.23s CPU      7.26s WALL (   15244 calls)
     interpolate  :      0.03s CPU      0.03s WALL (       8 calls)
     davcio       :      0.00s CPU      0.01s WALL (      44 calls)
 
     Parallel routines
 
     PWSCF        :     16.91s CPU     18.22s WALL

 
   This run was terminated on:  11: 1:37  17Mar2021            

=------------------------------------------------------------------------------=
   JOB DONE.
=------------------------------------------------------------------------------=
