
     Program PWSCF v.6.6 starts on 17Mar2021 at 11: 2:54 

     This program is part of the open-source Quantum ESPRESSO suite
     for quantum simulation of materials; please cite
         "P. Giannozzi et al., J. Phys.:Condens. Matter 21 395502 (2009);
         "P. Giannozzi et al., J. Phys.:Condens. Matter 29 465901 (2017);
          URL http://www.quantum-espresso.org", 
     in publications or presentations arising from this work. More details at
     http://www.quantum-espresso.org/quote

     Parallel version (MPI), running on     1 processors

     MPI processes distributed on     1 nodes
     Fft bands division:     nmany     =       1
     Waiting for input...
     Reading input from standard input
Warning: card &CELL ignored
Warning: card   CELL_DYNAMICS='BFGS', ignored
Warning: card   CELL_DOFREE='ALL', ignored
Warning: card / ignored

     Current dimensions of program PWSCF are:
     Max number of different atomic species (ntypx) = 10
     Max number of k-points (npk) =  40000
     Max angular momentum in pseudopotentials (lmaxx) =  3

     File /home/jesus/Documentos/Nanociencia_DFT/test.update deleted, as requested

     File /home/jesus/Documentos/Nanociencia_DFT/test.bfgs deleted, as requested

     Subspace diagonalization in iterative solution of the eigenvalue problem:
     a serial algorithm will be used

 
     G-vector sticks info
     --------------------
     sticks:   dense  smooth     PW     G-vecs:    dense   smooth      PW
     Sum        1039     511    151                77697    27409    4441
 


     bravais-lattice index     =            4
     lattice parameter (alat)  =       7.9368  a.u.
     unit-cell volume          =    1237.1064 (a.u.)^3
     number of atoms/cell      =            2
     number of atomic types    =            1
     number of electrons       =         8.00
     number of Kohn-Sham states=            8
     kinetic-energy cutoff     =      30.0000  Ry
     charge density cutoff     =     240.0000  Ry
     convergence threshold     =      1.0E-06
     mixing beta               =       0.7000
     number of iterations used =            8  plain     mixing
     Exchange-correlation= PBE
                           (   1   4   3   4   0   0   0)
     nstep                     =            1


     celldm(1)=   7.936850  celldm(2)=   0.000000  celldm(3)=   2.857143
     celldm(4)=   0.000000  celldm(5)=   0.000000  celldm(6)=   0.000000

     crystal axes: (cart. coord. in units of alat)
               a(1) = (   1.000000   0.000000   0.000000 )  
               a(2) = (  -0.500000   0.866025   0.000000 )  
               a(3) = (   0.000000   0.000000   2.857143 )  

     reciprocal axes: (cart. coord. in units 2 pi/alat)
               b(1) = (  1.000000  0.577350  0.000000 )  
               b(2) = (  0.000000  1.154701  0.000000 )  
               b(3) = (  0.000000  0.000000  0.350000 )  


     PseudoPot. # 1 for Si read from file:
     /home/jesus/Documentos/Nanociencia_DFT/pseudopotenciales/Si.pbe-n-rrkjus_psl.1.0.0.UPF
     MD5 check sum: fa25574f73a70a4139f2adfbefec430c
     Pseudo is Ultrasoft + core correction, Zval =  4.0
     Generated using "atomic" code by A. Dal Corso v.6.3
     Using radial grid of 1141 points,  6 beta functions with: 
                l(1) =   0
                l(2) =   0
                l(3) =   1
                l(4) =   1
                l(5) =   2
                l(6) =   2
     Q(r) pseudized with 0 coefficients 


     atomic species   valence    mass     pseudopotential
        Si             4.00    28.08550     Si( 1.00)

      6 Sym. Ops. (no inversion) found



   Cartesian axes

     site n.     atom                  positions (alat units)
         1           Si  tau(   1) = (  -0.0000000   0.5773503   1.4053693  )
         2           Si  tau(   2) = (   0.5000000   0.2886751   1.5231622  )

     number of k points=    44  Methfessel-Paxton smearing, width (Ry)=  0.0100
                       cart. coord. in units 2pi/alat
        k(    1) = (   0.0000000   0.0000000   0.0000000), wk =   0.0058309
        k(    2) = (   0.0000000   0.0000000   0.0500000), wk =   0.0116618
        k(    3) = (   0.0000000   0.0000000   0.1000000), wk =   0.0116618
        k(    4) = (   0.0000000   0.0000000   0.1500000), wk =   0.0116618
        k(    5) = (   0.0000000   0.1649572   0.0000000), wk =   0.0349854
        k(    6) = (   0.0000000   0.1649572   0.0500000), wk =   0.0349854
        k(    7) = (   0.0000000   0.1649572   0.1000000), wk =   0.0349854
        k(    8) = (   0.0000000   0.1649572   0.1500000), wk =   0.0349854
        k(    9) = (   0.0000000   0.3299144   0.0000000), wk =   0.0349854
        k(   10) = (   0.0000000   0.3299144   0.0500000), wk =   0.0349854
        k(   11) = (   0.0000000   0.3299144   0.1000000), wk =   0.0349854
        k(   12) = (   0.0000000   0.3299144   0.1500000), wk =   0.0349854
        k(   13) = (   0.0000000   0.4948717   0.0000000), wk =   0.0349854
        k(   14) = (   0.0000000   0.4948717   0.0500000), wk =   0.0349854
        k(   15) = (   0.0000000   0.4948717   0.1000000), wk =   0.0349854
        k(   16) = (   0.0000000   0.4948717   0.1500000), wk =   0.0349854
        k(   17) = (   0.1428571   0.2474358   0.0000000), wk =   0.0349854
        k(   18) = (   0.1428571   0.2474358   0.0500000), wk =   0.0699708
        k(   19) = (   0.1428571   0.2474358   0.1000000), wk =   0.0699708
        k(   20) = (   0.1428571   0.2474358   0.1500000), wk =   0.0699708
        k(   21) = (   0.1428571   0.4123930   0.0000000), wk =   0.0699708
        k(   22) = (   0.1428571   0.4123930   0.0500000), wk =   0.0699708
        k(   23) = (   0.1428571   0.4123930   0.1000000), wk =   0.0699708
        k(   24) = (   0.1428571   0.4123930   0.1500000), wk =   0.0699708
        k(   25) = (   0.1428571   0.5773503   0.0000000), wk =   0.0349854
        k(   26) = (   0.1428571   0.5773503   0.0500000), wk =   0.0699708
        k(   27) = (   0.1428571   0.5773503   0.1000000), wk =   0.0699708
        k(   28) = (   0.1428571   0.5773503   0.1500000), wk =   0.0699708
        k(   29) = (   0.2857143   0.4948717   0.0000000), wk =   0.0349854
        k(   30) = (   0.2857143   0.4948717   0.0500000), wk =   0.0699708
        k(   31) = (   0.2857143   0.4948717   0.1000000), wk =   0.0699708
        k(   32) = (   0.2857143   0.4948717   0.1500000), wk =   0.0699708
        k(   33) = (   0.0000000  -0.1649572   0.0500000), wk =   0.0349854
        k(   34) = (   0.0000000  -0.1649572   0.1000000), wk =   0.0349854
        k(   35) = (   0.0000000  -0.1649572   0.1500000), wk =   0.0349854
        k(   36) = (   0.0000000  -0.3299144   0.0500000), wk =   0.0349854
        k(   37) = (   0.0000000  -0.3299144   0.1000000), wk =   0.0349854
        k(   38) = (   0.0000000  -0.3299144   0.1500000), wk =   0.0349854
        k(   39) = (   0.0000000  -0.4948717   0.0500000), wk =   0.0349854
        k(   40) = (   0.0000000  -0.4948717   0.1000000), wk =   0.0349854
        k(   41) = (   0.0000000  -0.4948717   0.1500000), wk =   0.0349854
        k(   42) = (  -0.1428571  -0.4123930   0.0500000), wk =   0.0699708
        k(   43) = (  -0.1428571  -0.4123930   0.1000000), wk =   0.0699708
        k(   44) = (  -0.1428571  -0.4123930   0.1500000), wk =   0.0699708

     Dense  grid:    77697 G-vectors     FFT dimensions: (  40,  40, 120)

     Smooth grid:    27409 G-vectors     FFT dimensions: (  27,  27,  80)

     Estimated max dynamical RAM per process >     292.95 MB

     Initial potential from superposition of free atoms

     starting charge    7.99888, renormalised to    8.00000

     negative rho (up, down):  3.103E-06 0.000E+00
     Starting wfcs are    8 randomized atomic wfcs

     total cpu time spent up to now is        2.3 secs

     Self-consistent Calculation

     iteration #  1     ecut=    30.00 Ry     beta= 0.70
     Davidson diagonalization with overlap
     ethr =  1.00E-02,  avg # of iterations =  3.7

     Threshold (ethr) on eigenvalues was too large:
     Diagonalizing with lowered threshold

     Davidson diagonalization with overlap
     ethr =  4.08E-04,  avg # of iterations =  2.6

     negative rho (up, down):  1.815E-07 0.000E+00

     total cpu time spent up to now is        8.3 secs

     total energy              =     -22.70813396 Ry
     estimated scf accuracy    <       0.03600574 Ry

     iteration #  2     ecut=    30.00 Ry     beta= 0.70
     Davidson diagonalization with overlap
     ethr =  4.50E-04,  avg # of iterations =  1.4

     negative rho (up, down):  2.552E-07 0.000E+00

     total cpu time spent up to now is       11.0 secs

     total energy              =     -22.71001116 Ry
     estimated scf accuracy    <       0.00171112 Ry

     iteration #  3     ecut=    30.00 Ry     beta= 0.70
     Davidson diagonalization with overlap
     ethr =  2.14E-05,  avg # of iterations =  9.0

     negative rho (up, down):  2.383E-07 0.000E+00

     total cpu time spent up to now is       15.0 secs

     total energy              =     -22.71015876 Ry
     estimated scf accuracy    <       0.00005412 Ry

     iteration #  4     ecut=    30.00 Ry     beta= 0.70
     Davidson diagonalization with overlap
     c_bands:  1 eigenvalues not converged
     ethr =  6.77E-07,  avg # of iterations =  4.6

     negative rho (up, down):  2.490E-07 0.000E+00

     total cpu time spent up to now is       18.4 secs

     total energy              =     -22.71016950 Ry
     estimated scf accuracy    <       0.00000281 Ry

     iteration #  5     ecut=    30.00 Ry     beta= 0.70
     Davidson diagonalization with overlap
     ethr =  3.52E-08,  avg # of iterations =  2.3

     negative rho (up, down):  2.604E-07 0.000E+00

     total cpu time spent up to now is       21.3 secs

     total energy              =     -22.71017049 Ry
     estimated scf accuracy    <       0.00000147 Ry

     iteration #  6     ecut=    30.00 Ry     beta= 0.70
     Davidson diagonalization with overlap
     ethr =  1.84E-08,  avg # of iterations =  1.1

     negative rho (up, down):  2.610E-07 0.000E+00

     total cpu time spent up to now is       23.9 secs

     End of self-consistent calculation

          k = 0.0000 0.0000 0.0000 (  3363 PWs)   bands (ev):

   -12.2703  -4.9068  -3.5155  -3.5155  -2.2179   0.4480   0.4844   0.4844

          k = 0.0000 0.0000 0.0500 (  3363 PWs)   bands (ev):

   -12.2703  -4.9068  -3.5155  -3.5155  -2.2179   0.4551   0.4844   0.4844

          k = 0.0000 0.0000 0.1000 (  3400 PWs)   bands (ev):

   -12.2703  -4.9068  -3.5155  -3.5155  -2.2179   0.4714   0.4844   0.4844

          k = 0.0000 0.0000 0.1500 (  3394 PWs)   bands (ev):

   -12.2703  -4.9069  -3.5155  -3.5155  -2.2180   0.4844   0.4844   0.4852

          k = 0.0000 0.1650 0.0000 (  3416 PWs)   bands (ev):

   -12.0771  -5.4476  -4.2987  -3.7961  -1.0958   0.4075   0.6793   1.1389

          k = 0.0000 0.1650 0.0500 (  3409 PWs)   bands (ev):

   -12.0771  -5.4476  -4.2987  -3.7961  -1.0958   0.4105   0.6807   1.1390

          k = 0.0000 0.1650 0.1000 (  3411 PWs)   bands (ev):

   -12.0771  -5.4476  -4.2988  -3.7961  -1.0958   0.4170   0.6846   1.1390

          k = 0.0000 0.1650 0.1500 (  3410 PWs)   bands (ev):

   -12.0771  -5.4476  -4.2988  -3.7961  -1.0958   0.4222   0.6884   1.1390

          k = 0.0000 0.3299 0.0000 (  3442 PWs)   bands (ev):

   -11.5167  -7.1670  -4.2697  -3.9216  -1.1601  -0.1074   2.0715   2.6406

          k = 0.0000 0.3299 0.0500 (  3434 PWs)   bands (ev):

   -11.5167  -7.1670  -4.2697  -3.9216  -1.1601  -0.1073   2.0914   2.6406

          k = 0.0000 0.3299 0.1000 (  3430 PWs)   bands (ev):

   -11.5167  -7.1670  -4.2697  -3.9216  -1.1601  -0.1067   2.1305   2.6406

          k = 0.0000 0.3299 0.1500 (  3426 PWs)   bands (ev):

   -11.5167  -7.1670  -4.2697  -3.9216  -1.1601  -0.1062   2.1617   2.6406

          k = 0.0000 0.4949 0.0000 (  3448 PWs)   bands (ev):

   -10.7284  -8.6234  -4.5641  -3.2448  -1.4774  -1.1246   2.9118   3.7409

          k = 0.0000 0.4949 0.0500 (  3441 PWs)   bands (ev):

   -10.7284  -8.6234  -4.5641  -3.2448  -1.4774  -1.1246   2.9322   3.7408

          k = 0.0000 0.4949 0.1000 (  3439 PWs)   bands (ev):

   -10.7284  -8.6234  -4.5641  -3.2448  -1.4774  -1.1246   2.9628   3.7407

          k = 0.0000 0.4949 0.1500 (  3440 PWs)   bands (ev):

   -10.7284  -8.6234  -4.5641  -3.2449  -1.4774  -1.1246   2.9797   3.7407

          k = 0.1429 0.2474 0.0000 (  3417 PWs)   bands (ev):

   -11.6985  -6.6440  -4.4089  -4.0562  -0.1771   0.0233   0.7070   2.1819

          k = 0.1429 0.2474 0.0500 (  3423 PWs)   bands (ev):

   -11.6985  -6.6440  -4.4090  -4.0562  -0.1771   0.0237   0.7079   2.2031

          k = 0.1429 0.2474 0.1000 (  3425 PWs)   bands (ev):

   -11.6985  -6.6440  -4.4090  -4.0562  -0.1772   0.0246   0.7100   2.2635

          k = 0.1429 0.2474 0.1500 (  3429 PWs)   bands (ev):

   -11.6985  -6.6440  -4.4090  -4.0563  -0.1772   0.0252   0.7117   2.3382

          k = 0.1429 0.4124 0.0000 (  3450 PWs)   bands (ev):

   -10.9883  -8.0998  -5.0353  -3.4131  -0.8980  -0.1095   2.1940   2.6364

          k = 0.1429 0.4124 0.0500 (  3446 PWs)   bands (ev):

   -10.9883  -8.0998  -5.0353  -3.4131  -0.8980  -0.1095   2.1939   2.6616

          k = 0.1429 0.4124 0.1000 (  3444 PWs)   bands (ev):

   -10.9883  -8.0998  -5.0353  -3.4131  -0.8980  -0.1094   2.1955   2.6950

          k = 0.1429 0.4124 0.1500 (  3446 PWs)   bands (ev):

   -10.9883  -8.0998  -5.0353  -3.4132  -0.8979  -0.1094   2.1975   2.7090

          k = 0.1429 0.5774 0.0000 (  3431 PWs)   bands (ev):

   -10.3584  -9.0093  -5.2572  -2.8468  -1.6042  -0.2708   2.6324   3.7025

          k = 0.1429 0.5774 0.0500 (  3431 PWs)   bands (ev):

   -10.3584  -9.0093  -5.2572  -2.8468  -1.6042  -0.2708   2.6320   3.7134

          k = 0.1429 0.5774 0.1000 (  3442 PWs)   bands (ev):

   -10.3584  -9.0093  -5.2572  -2.8468  -1.6042  -0.2708   2.6310   3.7384

          k = 0.1429 0.5774 0.1500 (  3441 PWs)   bands (ev):

   -10.3584  -9.0093  -5.2572  -2.8468  -1.6043  -0.2708   2.6302   3.7604

          k = 0.2857 0.4949 0.0000 (  3453 PWs)   bands (ev):

   -10.1898  -9.0853  -5.7709  -2.6613  -1.6731   1.7484   2.1512   2.1687

          k = 0.2857 0.4949 0.0500 (  3433 PWs)   bands (ev):

   -10.1898  -9.0853  -5.7709  -2.6613  -1.6731   1.7483   2.1508   2.1689

          k = 0.2857 0.4949 0.1000 (  3441 PWs)   bands (ev):

   -10.1898  -9.0853  -5.7709  -2.6613  -1.6731   1.7483   2.1498   2.1690

          k = 0.2857 0.4949 0.1500 (  3436 PWs)   bands (ev):

   -10.1898  -9.0853  -5.7709  -2.6613  -1.6731   1.7483   2.1491   2.1692

          k = 0.0000-0.1650 0.0500 (  3409 PWs)   bands (ev):

   -12.0771  -5.4476  -4.2987  -3.7961  -1.0958   0.4103   0.6813   1.1389

          k = 0.0000-0.1650 0.1000 (  3411 PWs)   bands (ev):

   -12.0771  -5.4476  -4.2988  -3.7961  -1.0958   0.4168   0.6855   1.1389

          k = 0.0000-0.1650 0.1500 (  3410 PWs)   bands (ev):

   -12.0771  -5.4476  -4.2988  -3.7961  -1.0959   0.4221   0.6888   1.1389

          k = 0.0000-0.3299 0.0500 (  3434 PWs)   bands (ev):

   -11.5167  -7.1670  -4.2697  -3.9216  -1.1601  -0.1071   2.0816   2.6279

          k = 0.0000-0.3299 0.1000 (  3430 PWs)   bands (ev):

   -11.5167  -7.1670  -4.2697  -3.9216  -1.1601  -0.1065   2.1176   2.6406

          k = 0.0000-0.3299 0.1500 (  3426 PWs)   bands (ev):

   -11.5167  -7.1670  -4.2697  -3.9217  -1.1601  -0.1060   2.1552   2.6406

          k = 0.0000-0.4949 0.0500 (  3441 PWs)   bands (ev):

   -10.7284  -8.6234  -4.5641  -3.2448  -1.4774  -1.1246   2.9144   3.7408

          k = 0.0000-0.4949 0.1000 (  3439 PWs)   bands (ev):

   -10.7284  -8.6234  -4.5641  -3.2448  -1.4774  -1.1246   2.9378   3.7407

          k = 0.0000-0.4949 0.1500 (  3440 PWs)   bands (ev):

   -10.7284  -8.6234  -4.5641  -3.2449  -1.4774  -1.1246   2.9675   3.7407

          k =-0.1429-0.4124 0.0500 (  3446 PWs)   bands (ev):

   -10.9883  -8.0998  -5.0353  -3.4131  -0.8979  -0.1095   2.1957   2.6363

          k =-0.1429-0.4124 0.1000 (  3444 PWs)   bands (ev):

   -10.9883  -8.0998  -5.0353  -3.4131  -0.8979  -0.1095   2.1977   2.6580

          k =-0.1429-0.4124 0.1500 (  3446 PWs)   bands (ev):

   -10.9883  -8.0998  -5.0353  -3.4132  -0.8979  -0.1095   2.1984   2.6904

     the Fermi energy is    -2.5491 ev

!    total energy              =     -22.71017072 Ry
     estimated scf accuracy    <       0.00000003 Ry
     smearing contrib. (-TS)   =       0.00008938 Ry
     internal energy E=F+TS    =     -22.71026011 Ry

     The total energy is F=E-TS. E is the sum of the following terms:
     one-electron contribution =     -32.11960089 Ry
     hartree contribution      =      17.16778812 Ry
     xc contribution           =     -11.91985987 Ry
     ewald contribution        =       4.16141253 Ry

     convergence has been achieved in   6 iterations

     negative rho (up, down):  2.610E-07 0.000E+00

     Forces acting on atoms (cartesian axes, Ry/au):

     atom    1 type  1   force =     0.00000000    0.00000000    0.01003418
     atom    2 type  1   force =     0.00000000    0.00000000   -0.01003418

     Total force =     0.014190     Total SCF correction =     0.000063

     BFGS Geometry Optimization

     number of scf cycles    =   1
     number of bfgs steps    =   0

     energy   new            =     -22.7101707237 Ry

     new trust radius        =       0.0100341840 bohr

     The maximum number of steps has been reached.

     End of BFGS Geometry Optimization

ATOMIC_POSITIONS (crystal)
Si            0.3333333300        0.6666666700        0.4923217365
Si            0.6666666700        0.3333333300        0.5326642755



     Writing output data file /home/jesus/Documentos/Nanociencia_DFT/test.save/
     NEW-OLD atomic charge density approx. for the potential

     negative rho (up, down):  2.525E-07 0.000E+00

     Writing output data file /home/jesus/Documentos/Nanociencia_DFT/test.save/
 
     init_run     :      1.41s CPU      1.65s WALL (       1 calls)
     electrons    :     20.25s CPU     21.61s WALL (       1 calls)
     update_pot   :      0.17s CPU      0.17s WALL (       1 calls)
     forces       :      0.58s CPU      0.65s WALL (       1 calls)

     Called by init_run:
     wfcinit      :      0.69s CPU      0.70s WALL (       1 calls)
     potinit      :      0.16s CPU      0.18s WALL (       1 calls)
     hinit0       :      0.32s CPU      0.35s WALL (       1 calls)

     Called by electrons:
     c_bands      :     14.94s CPU     15.01s WALL (       7 calls)
     sum_band     :      3.76s CPU      4.42s WALL (       7 calls)
     v_of_rho     :      0.67s CPU      0.71s WALL (       8 calls)
     newd         :      1.37s CPU      2.20s WALL (       8 calls)
     mix_rho      :      0.05s CPU      0.05s WALL (       7 calls)

     Called by c_bands:
     init_us_2    :      0.69s CPU      0.70s WALL (     704 calls)
     cegterg      :     11.79s CPU     11.85s WALL (     308 calls)

     Called by *egterg:
     cdiaghg      :      0.16s CPU      0.16s WALL (    1352 calls)
     h_psi        :     10.73s CPU     10.79s WALL (    1440 calls)
     s_psi        :      0.41s CPU      0.41s WALL (    1440 calls)
     g_psi        :      0.05s CPU      0.05s WALL (    1088 calls)

     Called by h_psi:
     h_psi:calbec :      0.49s CPU      0.49s WALL (    1440 calls)
     vloc_psi     :      9.73s CPU      9.78s WALL (    1440 calls)
     add_vuspsi   :      0.46s CPU      0.46s WALL (    1440 calls)

     General routines
     calbec       :      0.70s CPU      0.70s WALL (    1924 calls)
     fft          :      0.26s CPU      0.28s WALL (     115 calls)
     ffts         :      0.01s CPU      0.01s WALL (      15 calls)
     fftw         :     10.20s CPU     10.26s WALL (   16570 calls)
     interpolate  :      0.03s CPU      0.03s WALL (       8 calls)
     davcio       :      0.00s CPU      0.01s WALL (      44 calls)
 
     Parallel routines
 
     PWSCF        :     23.28s CPU     25.05s WALL

 
   This run was terminated on:  11: 3:19  17Mar2021            

=------------------------------------------------------------------------------=
   JOB DONE.
=------------------------------------------------------------------------------=
