
     Program PWSCF v.6.6 starts on  2Apr2021 at 15:51:14 

     This program is part of the open-source Quantum ESPRESSO suite
     for quantum simulation of materials; please cite
         "P. Giannozzi et al., J. Phys.:Condens. Matter 21 395502 (2009);
         "P. Giannozzi et al., J. Phys.:Condens. Matter 29 465901 (2017);
          URL http://www.quantum-espresso.org", 
     in publications or presentations arising from this work. More details at
     http://www.quantum-espresso.org/quote

     Parallel version (MPI), running on     1 processors

     MPI processes distributed on     1 nodes
     Fft bands division:     nmany     =       1
     Waiting for input...
     Reading input from standard input
Warning: card &CELL ignored
Warning: card   CELL_DYNAMICS='BFGS', ignored
Warning: card   CELL_DOFREE='ALL', ignored
Warning: card / ignored

     Current dimensions of program PWSCF are:
     Max number of different atomic species (ntypx) = 10
     Max number of k-points (npk) =  40000
     Max angular momentum in pseudopotentials (lmaxx) =  3

     File /home/jesus/Documentos/Nanociencia_DFT/test.update deleted, as requested

     File /home/jesus/Documentos/Nanociencia_DFT/test.bfgs deleted, as requested

     Subspace diagonalization in iterative solution of the eigenvalue problem:
     a serial algorithm will be used

 
     G-vector sticks info
     --------------------
     sticks:   dense  smooth     PW     G-vecs:    dense   smooth      PW
     Sum         877     439    127                65775    23245    3769
 


     bravais-lattice index     =            4
     lattice parameter (alat)  =       7.3132  a.u.
     unit-cell volume          =    1050.3412 (a.u.)^3
     number of atoms/cell      =            2
     number of atomic types    =            1
     number of electrons       =         8.00
     number of Kohn-Sham states=            8
     kinetic-energy cutoff     =      30.0000  Ry
     charge density cutoff     =     240.0000  Ry
     convergence threshold     =      1.0E-06
     mixing beta               =       0.7000
     number of iterations used =            8  plain     mixing
     Exchange-correlation= PBE
                           (   1   4   3   4   0   0   0)
     nstep                     =            1


     celldm(1)=   7.313240  celldm(2)=   0.000000  celldm(3)=   3.100775
     celldm(4)=   0.000000  celldm(5)=   0.000000  celldm(6)=   0.000000

     crystal axes: (cart. coord. in units of alat)
               a(1) = (   1.000000   0.000000   0.000000 )  
               a(2) = (  -0.500000   0.866025   0.000000 )  
               a(3) = (   0.000000   0.000000   3.100775 )  

     reciprocal axes: (cart. coord. in units 2 pi/alat)
               b(1) = (  1.000000  0.577350  0.000000 )  
               b(2) = (  0.000000  1.154701  0.000000 )  
               b(3) = (  0.000000  0.000000  0.322500 )  


     PseudoPot. # 1 for Si read from file:
     /home/jesus/Documentos/Nanociencia_DFT/pseudopotenciales/Si.pbe-n-rrkjus_psl.1.0.0.UPF
     MD5 check sum: fa25574f73a70a4139f2adfbefec430c
     Pseudo is Ultrasoft + core correction, Zval =  4.0
     Generated using "atomic" code by A. Dal Corso v.6.3
     Using radial grid of 1141 points,  6 beta functions with: 
                l(1) =   0
                l(2) =   0
                l(3) =   1
                l(4) =   1
                l(5) =   2
                l(6) =   2
     Q(r) pseudized with 0 coefficients 


     atomic species   valence    mass     pseudopotential
        Si             4.00    28.08550     Si( 1.00)

      6 Sym. Ops. (no inversion) found



   Cartesian axes

     site n.     atom                  positions (alat units)
         1           Si  tau(   1) = (  -0.0000000   0.5773503   1.5252070  )
         2           Si  tau(   2) = (   0.5000000   0.2886751   1.6530442  )

     number of k points=     8  Methfessel-Paxton smearing, width (Ry)=  0.0100
                       cart. coord. in units 2pi/alat
        k(    1) = (   0.0000000   0.0000000   0.0000000), wk =   0.0408163
        k(    2) = (   0.0000000   0.1649572   0.0000000), wk =   0.2448980
        k(    3) = (   0.0000000   0.3299144   0.0000000), wk =   0.2448980
        k(    4) = (   0.0000000   0.4948717   0.0000000), wk =   0.2448980
        k(    5) = (   0.1428571   0.2474358   0.0000000), wk =   0.2448980
        k(    6) = (   0.1428571   0.4123930   0.0000000), wk =   0.4897959
        k(    7) = (   0.1428571   0.5773503   0.0000000), wk =   0.2448980
        k(    8) = (   0.2857143   0.4948717   0.0000000), wk =   0.2448980

     Dense  grid:    65775 G-vectors     FFT dimensions: (  40,  40, 120)

     Smooth grid:    23245 G-vectors     FFT dimensions: (  25,  25,  80)

     Estimated max dynamical RAM per process >     237.46 MB

     Initial potential from superposition of free atoms

     starting charge    7.99888, renormalised to    8.00000

     negative rho (up, down):  2.375E-06 0.000E+00
     Starting wfcs are    8 randomized atomic wfcs

     total cpu time spent up to now is        1.7 secs

     Self-consistent Calculation

     iteration #  1     ecut=    30.00 Ry     beta= 0.70
     Davidson diagonalization with overlap
     ethr =  1.00E-02,  avg # of iterations =  4.1

     Threshold (ethr) on eigenvalues was too large:
     Diagonalizing with lowered threshold

     Davidson diagonalization with overlap
     ethr =  7.40E-04,  avg # of iterations =  2.1

     negative rho (up, down):  9.587E-07 0.000E+00

     total cpu time spent up to now is        3.4 secs

     total energy              =     -22.73885927 Ry
     estimated scf accuracy    <       0.06488065 Ry

     iteration #  2     ecut=    30.00 Ry     beta= 0.70
     Davidson diagonalization with overlap
     ethr =  8.11E-04,  avg # of iterations =  2.5

     negative rho (up, down):  1.394E-06 0.000E+00

     total cpu time spent up to now is        4.3 secs

     total energy              =     -22.74544901 Ry
     estimated scf accuracy    <       0.00187830 Ry

     iteration #  3     ecut=    30.00 Ry     beta= 0.70
     Davidson diagonalization with overlap
     ethr =  2.35E-05,  avg # of iterations =  6.0

     negative rho (up, down):  1.831E-06 0.000E+00

     total cpu time spent up to now is        5.3 secs

     total energy              =     -22.74564499 Ry
     estimated scf accuracy    <       0.00011523 Ry

     iteration #  4     ecut=    30.00 Ry     beta= 0.70
     Davidson diagonalization with overlap
     ethr =  1.44E-06,  avg # of iterations =  3.8

     negative rho (up, down):  1.823E-06 0.000E+00

     total cpu time spent up to now is        6.3 secs

     total energy              =     -22.74565727 Ry
     estimated scf accuracy    <       0.00000412 Ry

     iteration #  5     ecut=    30.00 Ry     beta= 0.70
     Davidson diagonalization with overlap
     ethr =  5.15E-08,  avg # of iterations =  2.6

     negative rho (up, down):  1.819E-06 0.000E+00

     total cpu time spent up to now is        7.3 secs

     total energy              =     -22.74565888 Ry
     estimated scf accuracy    <       0.00000266 Ry

     iteration #  6     ecut=    30.00 Ry     beta= 0.70
     Davidson diagonalization with overlap
     ethr =  3.33E-08,  avg # of iterations =  1.4

     negative rho (up, down):  1.820E-06 0.000E+00

     total cpu time spent up to now is        8.2 secs

     End of self-consistent calculation

          k = 0.0000 0.0000 0.0000 (  2919 PWs)   bands (ev):

   -12.7599  -4.9228  -2.9170  -2.9170   0.1576   0.7217   1.2904   1.2904

          k = 0.0000 0.1650 0.0000 (  2935 PWs)   bands (ev):

   -12.5233  -4.8785  -4.2201  -3.2894   0.5154   0.8639   2.0378   2.1137

          k = 0.0000 0.3299 0.0000 (  2927 PWs)   bands (ev):

   -11.8326  -6.6859  -3.9409  -3.8907  -0.2050   0.6341   2.5704   3.9461

          k = 0.0000 0.4949 0.0000 (  2929 PWs)   bands (ev):

   -10.8303  -8.4870  -4.2547  -3.0277  -0.8740  -0.4537   3.3736   4.8267

          k = 0.1429 0.2474 0.0000 (  2925 PWs)   bands (ev):

   -12.0581  -6.0021  -4.1248  -4.1216   0.7687   1.4603   1.5453   2.7306

          k = 0.1429 0.4124 0.0000 (  2912 PWs)   bands (ev):

   -11.1756  -7.7459  -4.9223  -3.3104  -0.2228   0.9925   3.0484   3.4604

          k = 0.1429 0.5774 0.0000 (  2906 PWs)   bands (ev):

   -10.3534  -8.9069  -5.1913  -2.5518  -1.1745   0.7734   3.1621   4.3320

          k = 0.2857 0.4949 0.0000 (  2900 PWs)   bands (ev):

   -10.1799  -8.8540  -5.9361  -2.3708  -1.1591   2.4470   3.2553   3.6376

     the Fermi energy is    -1.2821 ev

!    total energy              =     -22.74565931 Ry
     estimated scf accuracy    <       0.00000004 Ry
     smearing contrib. (-TS)   =       0.00014420 Ry
     internal energy E=F+TS    =     -22.74580350 Ry

     The total energy is F=E-TS. E is the sum of the following terms:
     one-electron contribution =     -37.76028144 Ry
     hartree contribution      =      20.15960137 Ry
     xc contribution           =     -12.13341153 Ry
     ewald contribution        =       6.98828810 Ry

     convergence has been achieved in   6 iterations

     negative rho (up, down):  1.820E-06 0.000E+00

     Forces acting on atoms (cartesian axes, Ry/au):

     atom    1 type  1   force =     0.00000000    0.00000000    0.00347413
     atom    2 type  1   force =     0.00000000    0.00000000   -0.00347413

     Total force =     0.004913     Total SCF correction =     0.000102

     BFGS Geometry Optimization

     number of scf cycles    =   1
     number of bfgs steps    =   0

     energy   new            =     -22.7456593089 Ry

     new trust radius        =       0.0034741332 bohr

     The maximum number of steps has been reached.

     End of BFGS Geometry Optimization

ATOMIC_POSITIONS (crystal)
Si            0.3333333300        0.6666666700        0.4920324507
Si            0.6666666700        0.3333333300        0.5329535613



     Writing output data file /home/jesus/Documentos/Nanociencia_DFT/test.save/
     NEW-OLD atomic charge density approx. for the potential

     negative rho (up, down):  1.812E-06 0.000E+00

     Writing output data file /home/jesus/Documentos/Nanociencia_DFT/test.save/
 
     init_run     :      0.82s CPU      1.02s WALL (       1 calls)
     electrons    :      5.32s CPU      6.43s WALL (       1 calls)
     update_pot   :      0.17s CPU      0.17s WALL (       1 calls)
     forces       :      0.37s CPU      0.45s WALL (       1 calls)

     Called by init_run:
     wfcinit      :      0.11s CPU      0.11s WALL (       1 calls)
     potinit      :      0.15s CPU      0.18s WALL (       1 calls)
     hinit0       :      0.32s CPU      0.35s WALL (       1 calls)

     Called by electrons:
     c_bands      :      2.27s CPU      2.31s WALL (       7 calls)
     sum_band     :      1.61s CPU      2.14s WALL (       7 calls)
     v_of_rho     :      0.70s CPU      0.73s WALL (       8 calls)
     newd         :      1.21s CPU      1.94s WALL (       8 calls)
     mix_rho      :      0.05s CPU      0.05s WALL (       7 calls)

     Called by c_bands:
     init_us_2    :      0.12s CPU      0.12s WALL (     128 calls)
     cegterg      :      1.76s CPU      1.78s WALL (      56 calls)

     Called by *egterg:
     cdiaghg      :      0.03s CPU      0.03s WALL (     228 calls)
     h_psi        :      1.58s CPU      1.61s WALL (     244 calls)
     s_psi        :      0.06s CPU      0.06s WALL (     244 calls)
     g_psi        :      0.01s CPU      0.01s WALL (     180 calls)

     Called by h_psi:
     h_psi:calbec :      0.08s CPU      0.08s WALL (     244 calls)
     vloc_psi     :      1.42s CPU      1.45s WALL (     244 calls)
     add_vuspsi   :      0.07s CPU      0.07s WALL (     244 calls)

     General routines
     calbec       :      0.11s CPU      0.11s WALL (     332 calls)
     fft          :      0.28s CPU      0.30s WALL (     115 calls)
     ffts         :      0.01s CPU      0.01s WALL (      15 calls)
     fftw         :      1.47s CPU      1.50s WALL (    2992 calls)
     interpolate  :      0.03s CPU      0.04s WALL (       8 calls)
     davcio       :      0.00s CPU      0.00s WALL (       8 calls)
 
     Parallel routines
 
     PWSCF        :      7.55s CPU      9.05s WALL

 
   This run was terminated on:  15:51:23   2Apr2021            

=------------------------------------------------------------------------------=
   JOB DONE.
=------------------------------------------------------------------------------=
