
     Program PWSCF v.6.6 starts on 17Mar2021 at 11: 0:31 

     This program is part of the open-source Quantum ESPRESSO suite
     for quantum simulation of materials; please cite
         "P. Giannozzi et al., J. Phys.:Condens. Matter 21 395502 (2009);
         "P. Giannozzi et al., J. Phys.:Condens. Matter 29 465901 (2017);
          URL http://www.quantum-espresso.org", 
     in publications or presentations arising from this work. More details at
     http://www.quantum-espresso.org/quote

     Parallel version (MPI), running on     1 processors

     MPI processes distributed on     1 nodes
     Fft bands division:     nmany     =       1
     Waiting for input...
     Reading input from standard input
Warning: card &CELL ignored
Warning: card   CELL_DYNAMICS='BFGS', ignored
Warning: card   CELL_DOFREE='ALL', ignored
Warning: card / ignored

     Current dimensions of program PWSCF are:
     Max number of different atomic species (ntypx) = 10
     Max number of k-points (npk) =  40000
     Max angular momentum in pseudopotentials (lmaxx) =  3

     File /home/jesus/Documentos/Nanociencia_DFT/test.update deleted, as requested

     File /home/jesus/Documentos/Nanociencia_DFT/test.bfgs deleted, as requested

     Subspace diagonalization in iterative solution of the eigenvalue problem:
     a serial algorithm will be used

 
     G-vector sticks info
     --------------------
     sticks:   dense  smooth     PW     G-vecs:    dense   smooth      PW
     Sum         673     349    109                50823    18043    3079
 


     bravais-lattice index     =            4
     lattice parameter (alat)  =       6.4251  a.u.
     unit-cell volume          =     810.7115 (a.u.)^3
     number of atoms/cell      =            2
     number of atomic types    =            1
     number of electrons       =         8.00
     number of Kohn-Sham states=            8
     kinetic-energy cutoff     =      30.0000  Ry
     charge density cutoff     =     240.0000  Ry
     convergence threshold     =      1.0E-06
     mixing beta               =       0.7000
     number of iterations used =            8  plain     mixing
     Exchange-correlation= PBE
                           (   1   4   3   4   0   0   0)
     nstep                     =            1


     celldm(1)=   6.425069  celldm(2)=   0.000000  celldm(3)=   3.529412
     celldm(4)=   0.000000  celldm(5)=   0.000000  celldm(6)=   0.000000

     crystal axes: (cart. coord. in units of alat)
               a(1) = (   1.000000   0.000000   0.000000 )  
               a(2) = (  -0.500000   0.866025   0.000000 )  
               a(3) = (   0.000000   0.000000   3.529412 )  

     reciprocal axes: (cart. coord. in units 2 pi/alat)
               b(1) = (  1.000000  0.577350  0.000000 )  
               b(2) = (  0.000000  1.154701  0.000000 )  
               b(3) = (  0.000000  0.000000  0.283333 )  


     PseudoPot. # 1 for Si read from file:
     /home/jesus/Documentos/Nanociencia_DFT/pseudopotenciales/Si.pbe-n-rrkjus_psl.1.0.0.UPF
     MD5 check sum: fa25574f73a70a4139f2adfbefec430c
     Pseudo is Ultrasoft + core correction, Zval =  4.0
     Generated using "atomic" code by A. Dal Corso v.6.3
     Using radial grid of 1141 points,  6 beta functions with: 
                l(1) =   0
                l(2) =   0
                l(3) =   1
                l(4) =   1
                l(5) =   2
                l(6) =   2
     Q(r) pseudized with 0 coefficients 


     atomic species   valence    mass     pseudopotential
        Si             4.00    28.08550     Si( 1.00)

      6 Sym. Ops. (no inversion) found



   Cartesian axes

     site n.     atom                  positions (alat units)
         1           Si  tau(   1) = (  -0.0000000   0.5773503   1.7360444  )
         2           Si  tau(   2) = (   0.5000000   0.2886751   1.8815533  )

     number of k points=    44  Methfessel-Paxton smearing, width (Ry)=  0.0100
                       cart. coord. in units 2pi/alat
        k(    1) = (   0.0000000   0.0000000   0.0000000), wk =   0.0058309
        k(    2) = (   0.0000000   0.0000000   0.0404762), wk =   0.0116618
        k(    3) = (   0.0000000   0.0000000   0.0809524), wk =   0.0116618
        k(    4) = (   0.0000000   0.0000000   0.1214286), wk =   0.0116618
        k(    5) = (   0.0000000   0.1649572   0.0000000), wk =   0.0349854
        k(    6) = (   0.0000000   0.1649572   0.0404762), wk =   0.0349854
        k(    7) = (   0.0000000   0.1649572   0.0809524), wk =   0.0349854
        k(    8) = (   0.0000000   0.1649572   0.1214286), wk =   0.0349854
        k(    9) = (   0.0000000   0.3299144   0.0000000), wk =   0.0349854
        k(   10) = (   0.0000000   0.3299144   0.0404762), wk =   0.0349854
        k(   11) = (   0.0000000   0.3299144   0.0809524), wk =   0.0349854
        k(   12) = (   0.0000000   0.3299144   0.1214286), wk =   0.0349854
        k(   13) = (   0.0000000   0.4948717   0.0000000), wk =   0.0349854
        k(   14) = (   0.0000000   0.4948717   0.0404762), wk =   0.0349854
        k(   15) = (   0.0000000   0.4948717   0.0809524), wk =   0.0349854
        k(   16) = (   0.0000000   0.4948717   0.1214286), wk =   0.0349854
        k(   17) = (   0.1428571   0.2474358   0.0000000), wk =   0.0349854
        k(   18) = (   0.1428571   0.2474358   0.0404762), wk =   0.0699708
        k(   19) = (   0.1428571   0.2474358   0.0809524), wk =   0.0699708
        k(   20) = (   0.1428571   0.2474358   0.1214286), wk =   0.0699708
        k(   21) = (   0.1428571   0.4123930   0.0000000), wk =   0.0699708
        k(   22) = (   0.1428571   0.4123930   0.0404762), wk =   0.0699708
        k(   23) = (   0.1428571   0.4123930   0.0809524), wk =   0.0699708
        k(   24) = (   0.1428571   0.4123930   0.1214286), wk =   0.0699708
        k(   25) = (   0.1428571   0.5773503   0.0000000), wk =   0.0349854
        k(   26) = (   0.1428571   0.5773503   0.0404762), wk =   0.0699708
        k(   27) = (   0.1428571   0.5773503   0.0809524), wk =   0.0699708
        k(   28) = (   0.1428571   0.5773503   0.1214286), wk =   0.0699708
        k(   29) = (   0.2857143   0.4948717   0.0000000), wk =   0.0349854
        k(   30) = (   0.2857143   0.4948717   0.0404762), wk =   0.0699708
        k(   31) = (   0.2857143   0.4948717   0.0809524), wk =   0.0699708
        k(   32) = (   0.2857143   0.4948717   0.1214286), wk =   0.0699708
        k(   33) = (   0.0000000  -0.1649572   0.0404762), wk =   0.0349854
        k(   34) = (   0.0000000  -0.1649572   0.0809524), wk =   0.0349854
        k(   35) = (   0.0000000  -0.1649572   0.1214286), wk =   0.0349854
        k(   36) = (   0.0000000  -0.3299144   0.0404762), wk =   0.0349854
        k(   37) = (   0.0000000  -0.3299144   0.0809524), wk =   0.0349854
        k(   38) = (   0.0000000  -0.3299144   0.1214286), wk =   0.0349854
        k(   39) = (   0.0000000  -0.4948717   0.0404762), wk =   0.0349854
        k(   40) = (   0.0000000  -0.4948717   0.0809524), wk =   0.0349854
        k(   41) = (   0.0000000  -0.4948717   0.1214286), wk =   0.0349854
        k(   42) = (  -0.1428571  -0.4123930   0.0404762), wk =   0.0699708
        k(   43) = (  -0.1428571  -0.4123930   0.0809524), wk =   0.0699708
        k(   44) = (  -0.1428571  -0.4123930   0.1214286), wk =   0.0699708

     Dense  grid:    50823 G-vectors     FFT dimensions: (  32,  32, 120)

     Smooth grid:    18043 G-vectors     FFT dimensions: (  24,  24,  80)

     Estimated max dynamical RAM per process >     191.90 MB

     Initial potential from superposition of free atoms

     starting charge    7.99888, renormalised to    8.00000

     negative rho (up, down):  1.853E-06 0.000E+00
     Starting wfcs are    8 randomized atomic wfcs

     total cpu time spent up to now is        1.9 secs

     Self-consistent Calculation

     iteration #  1     ecut=    30.00 Ry     beta= 0.70
     Davidson diagonalization with overlap
     ethr =  1.00E-02,  avg # of iterations =  5.0

     total cpu time spent up to now is        4.5 secs

     total energy              =     -22.59156207 Ry
     estimated scf accuracy    <       0.16045444 Ry

     iteration #  2     ecut=    30.00 Ry     beta= 0.70
     Davidson diagonalization with overlap
     ethr =  2.01E-03,  avg # of iterations =  3.2

     negative rho (up, down):  1.585E-07 0.000E+00

     total cpu time spent up to now is        6.6 secs

     total energy              =     -22.61834934 Ry
     estimated scf accuracy    <       0.00266736 Ry

     iteration #  3     ecut=    30.00 Ry     beta= 0.70
     Davidson diagonalization with overlap
     ethr =  3.33E-05,  avg # of iterations =  8.9

     negative rho (up, down):  1.191E-06 0.000E+00

     total cpu time spent up to now is        9.5 secs

     total energy              =     -22.61872187 Ry
     estimated scf accuracy    <       0.00020230 Ry

     iteration #  4     ecut=    30.00 Ry     beta= 0.70
     Davidson diagonalization with overlap
     c_bands:  1 eigenvalues not converged
     ethr =  2.53E-06,  avg # of iterations =  5.4

     negative rho (up, down):  1.080E-06 0.000E+00

     total cpu time spent up to now is       11.9 secs

     total energy              =     -22.61874392 Ry
     estimated scf accuracy    <       0.00000665 Ry

     iteration #  5     ecut=    30.00 Ry     beta= 0.70
     Davidson diagonalization with overlap
     ethr =  8.31E-08,  avg # of iterations =  2.3

     negative rho (up, down):  1.056E-06 0.000E+00

     total cpu time spent up to now is       13.9 secs

     End of self-consistent calculation

          k = 0.0000 0.0000 0.0000 (  2283 PWs)   bands (ev):

   -13.5069  -5.1473  -1.2496  -1.2496   1.0578   2.9696   2.9697   3.4617

          k = 0.0000 0.0000 0.0405 (  2277 PWs)   bands (ev):

   -13.5069  -5.1473  -1.2496  -1.2496   1.0640   2.9696   2.9696   3.2269

          k = 0.0000 0.0000 0.0810 (  2266 PWs)   bands (ev):

   -13.5069  -5.1473  -1.2496  -1.2496   1.0784   2.9697   2.9697   3.0085

          k = 0.0000 0.0000 0.1214 (  2272 PWs)   bands (ev):

   -13.5069  -5.1473  -1.2496  -1.2496   1.0904   2.8919   2.9696   2.9696

          k = 0.0000 0.1650 0.0000 (  2259 PWs)   bands (ev):

   -13.1868  -4.8391  -2.8938  -1.8375   1.3390   2.5258   3.8392   4.1456

          k = 0.0000 0.1650 0.0405 (  2266 PWs)   bands (ev):

   -13.1868  -4.8391  -2.8938  -1.8375   1.3444   2.5250   3.5922   4.1456

          k = 0.0000 0.1650 0.0810 (  2269 PWs)   bands (ev):

   -13.1868  -4.8391  -2.8938  -1.8376   1.3570   2.5252   3.3734   4.1456

          k = 0.0000 0.1650 0.1214 (  2271 PWs)   bands (ev):

   -13.1868  -4.8391  -2.8938  -1.8376   1.3674   2.5262   3.2552   4.1456

          k = 0.0000 0.3299 0.0000 (  2250 PWs)   bands (ev):

   -12.2432  -5.6713  -3.9165  -2.6986   1.5259   1.8552   3.5023   4.8920

          k = 0.0000 0.3299 0.0405 (  2247 PWs)   bands (ev):

   -12.2432  -5.6713  -3.9165  -2.6986   1.5262   1.8560   3.5229   4.6400

          k = 0.0000 0.3299 0.0810 (  2249 PWs)   bands (ev):

   -12.2432  -5.6713  -3.9165  -2.6986   1.5266   1.8590   3.5547   4.4173

          k = 0.0000 0.3299 0.1214 (  2242 PWs)   bands (ev):

   -12.2432  -5.6713  -3.9165  -2.6986   1.5270   1.8618   3.5741   4.3072

          k = 0.0000 0.4949 0.0000 (  2244 PWs)   bands (ev):

   -10.7982  -8.1488  -3.1944  -2.5440   0.1296   1.0442   4.2650   6.7227

          k = 0.0000 0.4949 0.0405 (  2238 PWs)   bands (ev):

   -10.7982  -8.1488  -3.1943  -2.5440   0.1295   1.0443   4.2730   6.7228

          k = 0.0000 0.4949 0.0810 (  2243 PWs)   bands (ev):

   -10.7982  -8.1488  -3.1944  -2.5440   0.1295   1.0442   4.2865   6.0773

          k = 0.0000 0.4949 0.1214 (  2244 PWs)   bands (ev):

   -10.7982  -8.1489  -3.1944  -2.5440   0.1295   1.0442   4.2958   6.7232

          k = 0.1429 0.2474 0.0000 (  2265 PWs)   bands (ev):

   -12.5539  -4.6186  -4.1958  -3.1940   1.7755   3.2019   4.0333   4.3746

          k = 0.1429 0.2474 0.0405 (  2268 PWs)   bands (ev):

   -12.5539  -4.6186  -4.1958  -3.1940   1.7788   3.2027   4.0164   4.3426

          k = 0.1429 0.2474 0.0810 (  2270 PWs)   bands (ev):

   -12.5539  -4.6186  -4.1958  -3.1940   1.7862   3.2049   3.9709   4.2777

          k = 0.1429 0.2474 0.1214 (  2256 PWs)   bands (ev):

   -12.5539  -4.6186  -4.1958  -3.1940   1.7923   3.2069   3.9260   4.2371

          k = 0.1429 0.4124 0.0000 (  2251 PWs)   bands (ev):

   -11.3315  -6.9281  -4.3102  -3.0389   1.1064   3.0047   3.8387   4.9177

          k = 0.1429 0.4124 0.0405 (  2246 PWs)   bands (ev):

   -11.3315  -6.9281  -4.3101  -3.0389   1.1064   3.0048   3.8498   4.8992

          k = 0.1429 0.4124 0.0810 (  2240 PWs)   bands (ev):

   -11.3315  -6.9281  -4.3101  -3.0389   1.1065   3.0048   3.8688   4.8881

          k = 0.1429 0.4124 0.1214 (  2247 PWs)   bands (ev):

   -11.3315  -6.9281  -4.3101  -3.0390   1.1067   3.0048   3.8809   4.8961

          k = 0.1429 0.5774 0.0000 (  2232 PWs)   bands (ev):

   -10.0607  -8.6630  -4.6465  -1.8659  -0.3507   2.7768   4.2593   5.5748

          k = 0.1429 0.5774 0.0405 (  2235 PWs)   bands (ev):

   -10.0607  -8.6630  -4.6466  -1.8659  -0.3507   2.7767   4.2595   5.5795

          k = 0.1429 0.5774 0.0810 (  2237 PWs)   bands (ev):

   -10.0607  -8.6630  -4.6466  -1.8659  -0.3507   2.7767   4.2598   5.5888

          k = 0.1429 0.5774 0.1214 (  2235 PWs)   bands (ev):

   -10.0607  -8.6630  -4.6466  -1.8659  -0.3507   2.7767   4.2599   5.5970

          k = 0.2857 0.4949 0.0000 (  2230 PWs)   bands (ev):

    -9.9240  -8.1608  -5.9926  -1.7048  -0.0516   3.1334   5.3018   5.3692

          k = 0.2857 0.4949 0.0405 (  2238 PWs)   bands (ev):

    -9.9240  -8.1608  -5.9926  -1.7048  -0.0517   3.1334   5.3028   5.3747

          k = 0.2857 0.4949 0.0810 (  2240 PWs)   bands (ev):

    -9.9240  -8.1608  -5.9926  -1.7049  -0.0517   3.1332   5.3043   5.3872

          k = 0.2857 0.4949 0.1214 (  2251 PWs)   bands (ev):

    -9.9240  -8.1608  -5.9926  -1.7049  -0.0517   3.1330   5.3054   5.3985

          k = 0.0000-0.1650 0.0405 (  2266 PWs)   bands (ev):

   -13.1868  -4.8391  -2.8938  -1.8375   1.3444   2.5268   3.5719   4.1456

          k = 0.0000-0.1650 0.0810 (  2269 PWs)   bands (ev):

   -13.1868  -4.8391  -2.8938  -1.8375   1.3570   2.5276   3.3605   4.1456

          k = 0.0000-0.1650 0.1214 (  2271 PWs)   bands (ev):

   -13.1868  -4.8391  -2.8938  -1.8376   1.3674   2.5275   3.2507   4.1456

          k = 0.0000-0.3299 0.0405 (  2247 PWs)   bands (ev):

   -12.2432  -5.6713  -3.9165  -2.6986   1.5261   1.8571   3.5035   4.7424

          k = 0.0000-0.3299 0.0810 (  2249 PWs)   bands (ev):

   -12.2432  -5.6713  -3.9165  -2.6986   1.5265   1.8603   3.5267   4.4980

          k = 0.0000-0.3299 0.1214 (  2242 PWs)   bands (ev):

   -12.2432  -5.6713  -3.9165  -2.6986   1.5269   1.8624   3.5597   4.3392

          k = 0.0000-0.4949 0.0405 (  2238 PWs)   bands (ev):

   -10.7982  -8.1488  -3.1943  -2.5440   0.1296   1.0443   4.2683   6.7230

          k = 0.0000-0.4949 0.0810 (  2243 PWs)   bands (ev):

   -10.7982  -8.1489  -3.1944  -2.5440   0.1296   1.0443   4.2807   6.7233

          k = 0.0000-0.4949 0.1214 (  2244 PWs)   bands (ev):

   -10.7982  -8.1489  -3.1944  -2.5440   0.1296   1.0442   4.2930   6.7226

          k =-0.1429-0.4124 0.0405 (  2246 PWs)   bands (ev):

   -11.3315  -6.9281  -4.3101  -3.0389   1.1065   3.0048   3.8426   4.9340

          k =-0.1429-0.4124 0.0810 (  2240 PWs)   bands (ev):

   -11.3315  -6.9281  -4.3101  -3.0390   1.1067   3.0048   3.8591   4.9379

          k =-0.1429-0.4124 0.1214 (  2247 PWs)   bands (ev):

   -11.3315  -6.9281  -4.3101  -3.0390   1.1067   3.0048   3.8765   4.9210

     the Fermi energy is    -0.4652 ev

!    total energy              =     -22.61874580 Ry
     estimated scf accuracy    <       0.00000079 Ry
     smearing contrib. (-TS)   =       0.00007143 Ry
     internal energy E=F+TS    =     -22.61881723 Ry

     The total energy is F=E-TS. E is the sum of the following terms:
     one-electron contribution =     -49.22204561 Ry
     hartree contribution      =      26.27906568 Ry
     xc contribution           =     -12.55648130 Ry
     ewald contribution        =      12.88064400 Ry

     convergence has been achieved in   5 iterations

     negative rho (up, down):  1.056E-06 0.000E+00

     Forces acting on atoms (cartesian axes, Ry/au):

     atom    1 type  1   force =     0.00000000    0.00000000   -0.09353585
     atom    2 type  1   force =     0.00000000    0.00000000    0.09353585

     Total force =     0.132280     Total SCF correction =     0.000438

     BFGS Geometry Optimization

     number of scf cycles    =   1
     number of bfgs steps    =   0

     energy   new            =     -22.6187458048 Ry

     new trust radius        =       0.0935358513 bohr

     The maximum number of steps has been reached.

     End of BFGS Geometry Optimization

ATOMIC_POSITIONS (crystal)
Si            0.3333333300        0.6666666700        0.4877544946
Si            0.6666666700        0.3333333300        0.5372315174



     Writing output data file /home/jesus/Documentos/Nanociencia_DFT/test.save/
     NEW-OLD atomic charge density approx. for the potential

     negative rho (up, down):  1.387E-06 0.000E+00

     Writing output data file /home/jesus/Documentos/Nanociencia_DFT/test.save/
 
     init_run     :      1.11s CPU      1.24s WALL (       1 calls)
     electrons    :     11.38s CPU     12.04s WALL (       1 calls)
     update_pot   :      0.12s CPU      0.12s WALL (       1 calls)
     forces       :      0.34s CPU      0.41s WALL (       1 calls)

     Called by init_run:
     wfcinit      :      0.55s CPU      0.55s WALL (       1 calls)
     potinit      :      0.09s CPU      0.11s WALL (       1 calls)
     hinit0       :      0.28s CPU      0.31s WALL (       1 calls)

     Called by electrons:
     c_bands      :      8.68s CPU      8.74s WALL (       5 calls)
     sum_band     :      1.84s CPU      2.12s WALL (       5 calls)
     v_of_rho     :      0.35s CPU      0.37s WALL (       7 calls)
     newd         :      0.86s CPU      1.29s WALL (       7 calls)
     mix_rho      :      0.02s CPU      0.02s WALL (       5 calls)

     Called by c_bands:
     init_us_2    :      0.35s CPU      0.35s WALL (     528 calls)
     cegterg      :      7.20s CPU      7.25s WALL (     220 calls)

     Called by *egterg:
     cdiaghg      :      0.15s CPU      0.15s WALL (    1312 calls)
     h_psi        :      6.63s CPU      6.68s WALL (    1356 calls)
     s_psi        :      0.22s CPU      0.22s WALL (    1356 calls)
     g_psi        :      0.03s CPU      0.03s WALL (    1092 calls)

     Called by h_psi:
     h_psi:calbec :      0.30s CPU      0.30s WALL (    1356 calls)
     vloc_psi     :      6.05s CPU      6.09s WALL (    1356 calls)
     add_vuspsi   :      0.25s CPU      0.25s WALL (    1356 calls)

     General routines
     calbec       :      0.41s CPU      0.41s WALL (    1752 calls)
     fft          :      0.11s CPU      0.13s WALL (     101 calls)
     ffts         :      0.01s CPU      0.01s WALL (      12 calls)
     fftw         :      6.14s CPU      6.18s WALL (   13874 calls)
     interpolate  :      0.01s CPU      0.02s WALL (       7 calls)
     davcio       :      0.00s CPU      0.00s WALL (      44 calls)
 
     Parallel routines
 
     PWSCF        :     13.72s CPU     14.67s WALL

 
   This run was terminated on:  11: 0:46  17Mar2021            

=------------------------------------------------------------------------------=
   JOB DONE.
=------------------------------------------------------------------------------=
