
     Program PWSCF v.6.6 starts on  2Apr2021 at 15:50: 9 

     This program is part of the open-source Quantum ESPRESSO suite
     for quantum simulation of materials; please cite
         "P. Giannozzi et al., J. Phys.:Condens. Matter 21 395502 (2009);
         "P. Giannozzi et al., J. Phys.:Condens. Matter 29 465901 (2017);
          URL http://www.quantum-espresso.org", 
     in publications or presentations arising from this work. More details at
     http://www.quantum-espresso.org/quote

     Parallel version (MPI), running on     1 processors

     MPI processes distributed on     1 nodes
     Fft bands division:     nmany     =       1
     Waiting for input...
     Reading input from standard input
Warning: card &CELL ignored
Warning: card   CELL_DYNAMICS='BFGS', ignored
Warning: card   CELL_DOFREE='ALL', ignored
Warning: card / ignored

     Current dimensions of program PWSCF are:
     Max number of different atomic species (ntypx) = 10
     Max number of k-points (npk) =  40000
     Max angular momentum in pseudopotentials (lmaxx) =  3

     Subspace diagonalization in iterative solution of the eigenvalue problem:
     a serial algorithm will be used

 
     G-vector sticks info
     --------------------
     sticks:   dense  smooth     PW     G-vecs:    dense   smooth      PW
     Sum         847     433    121                63489    22519    3643
 


     bravais-lattice index     =            4
     lattice parameter (alat)  =       7.1810  a.u.
     unit-cell volume          =    1012.6880 (a.u.)^3
     number of atoms/cell      =            2
     number of atomic types    =            1
     number of electrons       =         8.00
     number of Kohn-Sham states=            8
     kinetic-energy cutoff     =      30.0000  Ry
     charge density cutoff     =     240.0000  Ry
     convergence threshold     =      1.0E-06
     mixing beta               =       0.7000
     number of iterations used =            8  plain     mixing
     Exchange-correlation= PBE
                           (   1   4   3   4   0   0   0)
     nstep                     =            1


     celldm(1)=   7.180959  celldm(2)=   0.000000  celldm(3)=   3.157895
     celldm(4)=   0.000000  celldm(5)=   0.000000  celldm(6)=   0.000000

     crystal axes: (cart. coord. in units of alat)
               a(1) = (   1.000000   0.000000   0.000000 )  
               a(2) = (  -0.500000   0.866025   0.000000 )  
               a(3) = (   0.000000   0.000000   3.157895 )  

     reciprocal axes: (cart. coord. in units 2 pi/alat)
               b(1) = (  1.000000  0.577350  0.000000 )  
               b(2) = (  0.000000  1.154701  0.000000 )  
               b(3) = (  0.000000  0.000000  0.316667 )  


     PseudoPot. # 1 for Si read from file:
     /home/jesus/Documentos/Nanociencia_DFT/pseudopotenciales/Si.pbe-n-rrkjus_psl.1.0.0.UPF
     MD5 check sum: fa25574f73a70a4139f2adfbefec430c
     Pseudo is Ultrasoft + core correction, Zval =  4.0
     Generated using "atomic" code by A. Dal Corso v.6.3
     Using radial grid of 1141 points,  6 beta functions with: 
                l(1) =   0
                l(2) =   0
                l(3) =   1
                l(4) =   1
                l(5) =   2
                l(6) =   2
     Q(r) pseudized with 0 coefficients 


     atomic species   valence    mass     pseudopotential
        Si             4.00    28.08550     Si( 1.00)

      6 Sym. Ops. (no inversion) found



   Cartesian axes

     site n.     atom                  positions (alat units)
         1           Si  tau(   1) = (  -0.0000000   0.5773503   1.5533029  )
         2           Si  tau(   2) = (   0.5000000   0.2886751   1.6834950  )

     number of k points=     8  Methfessel-Paxton smearing, width (Ry)=  0.0100
                       cart. coord. in units 2pi/alat
        k(    1) = (   0.0000000   0.0000000   0.0000000), wk =   0.0408163
        k(    2) = (   0.0000000   0.1649572   0.0000000), wk =   0.2448980
        k(    3) = (   0.0000000   0.3299144   0.0000000), wk =   0.2448980
        k(    4) = (   0.0000000   0.4948717   0.0000000), wk =   0.2448980
        k(    5) = (   0.1428571   0.2474358   0.0000000), wk =   0.2448980
        k(    6) = (   0.1428571   0.4123930   0.0000000), wk =   0.4897959
        k(    7) = (   0.1428571   0.5773503   0.0000000), wk =   0.2448980
        k(    8) = (   0.2857143   0.4948717   0.0000000), wk =   0.2448980

     Dense  grid:    63489 G-vectors     FFT dimensions: (  36,  36, 120)

     Smooth grid:    22519 G-vectors     FFT dimensions: (  25,  25,  80)

     Estimated max dynamical RAM per process >     227.20 MB

     Initial potential from superposition of free atoms

     starting charge    7.99888, renormalised to    8.00000

     negative rho (up, down):  2.345E-06 0.000E+00
     Starting wfcs are    8 randomized atomic wfcs

     total cpu time spent up to now is        2.6 secs

     Self-consistent Calculation

     iteration #  1     ecut=    30.00 Ry     beta= 0.70
     Davidson diagonalization with overlap
     ethr =  1.00E-02,  avg # of iterations =  4.5

     Threshold (ethr) on eigenvalues was too large:
     Diagonalizing with lowered threshold

     Davidson diagonalization with overlap
     ethr =  8.57E-04,  avg # of iterations =  1.1

     negative rho (up, down):  7.785E-07 0.000E+00

     total cpu time spent up to now is        4.9 secs

     total energy              =     -22.73532097 Ry
     estimated scf accuracy    <       0.07490159 Ry

     iteration #  2     ecut=    30.00 Ry     beta= 0.70
     Davidson diagonalization with overlap
     ethr =  9.36E-04,  avg # of iterations =  2.5

     negative rho (up, down):  1.174E-06 0.000E+00

     total cpu time spent up to now is        5.9 secs

     total energy              =     -22.74384769 Ry
     estimated scf accuracy    <       0.00194114 Ry

     iteration #  3     ecut=    30.00 Ry     beta= 0.70
     Davidson diagonalization with overlap
     ethr =  2.43E-05,  avg # of iterations =  6.1

     negative rho (up, down):  1.671E-06 0.000E+00

     total cpu time spent up to now is        6.9 secs

     total energy              =     -22.74408002 Ry
     estimated scf accuracy    <       0.00013281 Ry

     iteration #  4     ecut=    30.00 Ry     beta= 0.70
     Davidson diagonalization with overlap
     ethr =  1.66E-06,  avg # of iterations =  4.6

     negative rho (up, down):  1.668E-06 0.000E+00

     total cpu time spent up to now is        7.9 secs

     total energy              =     -22.74409204 Ry
     estimated scf accuracy    <       0.00001044 Ry

     iteration #  5     ecut=    30.00 Ry     beta= 0.70
     Davidson diagonalization with overlap
     ethr =  1.30E-07,  avg # of iterations =  1.8

     negative rho (up, down):  1.663E-06 0.000E+00

     total cpu time spent up to now is        8.8 secs

     total energy              =     -22.74409448 Ry
     estimated scf accuracy    <       0.00000211 Ry

     iteration #  6     ecut=    30.00 Ry     beta= 0.70
     Davidson diagonalization with overlap
     ethr =  2.64E-08,  avg # of iterations =  1.9

     negative rho (up, down):  1.666E-06 0.000E+00

     total cpu time spent up to now is        9.7 secs

     End of self-consistent calculation

          k = 0.0000 0.0000 0.0000 (  2823 PWs)   bands (ev):

   -12.8678  -4.9465  -2.7399  -2.7399   0.7730   0.7731   1.4959   1.4959

          k = 0.0000 0.1650 0.0000 (  2803 PWs)   bands (ev):

   -12.6206  -4.8186  -4.1208  -3.1367   0.8096   0.9558   2.3619   2.5092

          k = 0.0000 0.3299 0.0000 (  2809 PWs)   bands (ev):

   -11.8979  -6.5655  -3.9415  -3.7701   0.0214   0.8035   2.6787   4.2731

          k = 0.0000 0.4949 0.0000 (  2812 PWs)   bands (ev):

   -10.8414  -8.4508  -4.1510  -2.9698  -0.7383  -0.2753   3.4852   5.0743

          k = 0.1429 0.2474 0.0000 (  2810 PWs)   bands (ev):

   -12.1341  -5.8399  -4.1375  -4.0279   0.9301   1.6569   1.9484   2.8798

          k = 0.1429 0.4124 0.0000 (  2808 PWs)   bands (ev):

   -11.2090  -7.6524  -4.8711  -3.2804  -0.0553   1.2511   3.1485   3.6827

          k = 0.1429 0.5774 0.0000 (  2816 PWs)   bands (ev):

   -10.3358  -8.8790  -5.1504  -2.4720  -1.0687   1.0263   3.2943   4.4867

          k = 0.2857 0.4949 0.0000 (  2798 PWs)   bands (ev):

   -10.1635  -8.7838  -5.9601  -2.2928  -1.0260   2.5326   3.5094   4.0722

     the Fermi energy is    -1.1683 ev

!    total energy              =     -22.74409492 Ry
     estimated scf accuracy    <       0.00000006 Ry
     smearing contrib. (-TS)   =       0.00015249 Ry
     internal energy E=F+TS    =     -22.74424741 Ry

     The total energy is F=E-TS. E is the sum of the following terms:
     one-electron contribution =     -39.17676908 Ry
     hartree contribution      =      20.91342508 Ry
     xc contribution           =     -12.18686611 Ry
     ewald contribution        =       7.70596270 Ry

     convergence has been achieved in   6 iterations

     negative rho (up, down):  1.666E-06 0.000E+00

     Forces acting on atoms (cartesian axes, Ry/au):

     atom    1 type  1   force =     0.00000000    0.00000000   -0.00237299
     atom    2 type  1   force =     0.00000000    0.00000000    0.00237299

     Total force =     0.003356     Total SCF correction =     0.000110

     BFGS Geometry Optimization

     number of scf cycles    =   1
     number of bfgs steps    =   0

     energy   new            =     -22.7440949204 Ry

     new trust radius        =       0.0023729862 bohr

     The maximum number of steps has been reached.

     End of BFGS Geometry Optimization

ATOMIC_POSITIONS (crystal)
Si            0.3333333300        0.6666666700        0.4917746038
Si            0.6666666700        0.3333333300        0.5332114082



     Writing output data file /home/jesus/Documentos/Nanociencia_DFT/test.save/
     NEW-OLD atomic charge density approx. for the potential

     negative rho (up, down):  1.669E-06 0.000E+00

     Writing output data file /home/jesus/Documentos/Nanociencia_DFT/test.save/
 
     init_run     :      0.86s CPU      1.48s WALL (       1 calls)
     electrons    :      5.80s CPU      7.16s WALL (       1 calls)
     update_pot   :      0.16s CPU      0.16s WALL (       1 calls)
     forces       :      0.37s CPU      0.47s WALL (       1 calls)

     Called by init_run:
     wfcinit      :      0.20s CPU      0.31s WALL (       1 calls)
     potinit      :      0.13s CPU      0.19s WALL (       1 calls)
     hinit0       :      0.32s CPU      0.59s WALL (       1 calls)

     Called by electrons:
     c_bands      :      2.58s CPU      2.65s WALL (       7 calls)
     sum_band     :      1.86s CPU      2.50s WALL (       7 calls)
     v_of_rho     :      0.57s CPU      0.59s WALL (       8 calls)
     newd         :      1.18s CPU      1.93s WALL (       8 calls)
     mix_rho      :      0.04s CPU      0.05s WALL (       7 calls)

     Called by c_bands:
     init_us_2    :      0.13s CPU      0.14s WALL (     128 calls)
     cegterg      :      2.03s CPU      2.10s WALL (      56 calls)

     Called by *egterg:
     cdiaghg      :      0.03s CPU      0.14s WALL (     228 calls)
     h_psi        :      1.90s CPU      1.93s WALL (     244 calls)
     s_psi        :      0.07s CPU      0.07s WALL (     244 calls)
     g_psi        :      0.01s CPU      0.01s WALL (     180 calls)

     Called by h_psi:
     h_psi:calbec :      0.09s CPU      0.09s WALL (     244 calls)
     vloc_psi     :      1.72s CPU      1.75s WALL (     244 calls)
     add_vuspsi   :      0.08s CPU      0.08s WALL (     244 calls)

     General routines
     calbec       :      0.13s CPU      0.14s WALL (     332 calls)
     fft          :      0.25s CPU      0.42s WALL (     115 calls)
     ffts         :      0.01s CPU      0.03s WALL (      15 calls)
     fftw         :      1.75s CPU      1.77s WALL (    2994 calls)
     interpolate  :      0.03s CPU      0.05s WALL (       8 calls)
     davcio       :      0.00s CPU      0.00s WALL (       8 calls)
 
     Parallel routines
 
     PWSCF        :      8.07s CPU     10.92s WALL

 
   This run was terminated on:  15:50:20   2Apr2021            

=------------------------------------------------------------------------------=
   JOB DONE.
=------------------------------------------------------------------------------=
