
     Program PWSCF v.6.6 starts on 17Mar2021 at 11: 3:19 

     This program is part of the open-source Quantum ESPRESSO suite
     for quantum simulation of materials; please cite
         "P. Giannozzi et al., J. Phys.:Condens. Matter 21 395502 (2009);
         "P. Giannozzi et al., J. Phys.:Condens. Matter 29 465901 (2017);
          URL http://www.quantum-espresso.org", 
     in publications or presentations arising from this work. More details at
     http://www.quantum-espresso.org/quote

     Parallel version (MPI), running on     1 processors

     MPI processes distributed on     1 nodes
     Fft bands division:     nmany     =       1
     Waiting for input...
     Reading input from standard input
Warning: card &CELL ignored
Warning: card   CELL_DYNAMICS='BFGS', ignored
Warning: card   CELL_DOFREE='ALL', ignored
Warning: card / ignored

     Current dimensions of program PWSCF are:
     Max number of different atomic species (ntypx) = 10
     Max number of k-points (npk) =  40000
     Max angular momentum in pseudopotentials (lmaxx) =  3

     File /home/jesus/Documentos/Nanociencia_DFT/test.update deleted, as requested

     File /home/jesus/Documentos/Nanociencia_DFT/test.bfgs deleted, as requested

     Subspace diagonalization in iterative solution of the eigenvalue problem:
     a serial algorithm will be used

 
     G-vector sticks info
     --------------------
     sticks:   dense  smooth     PW     G-vecs:    dense   smooth      PW
     Sum        1099     547    163                81261    28789    4657
 


     bravais-lattice index     =            4
     lattice parameter (alat)  =       8.1258  a.u.
     unit-cell volume          =    1296.7176 (a.u.)^3
     number of atoms/cell      =            2
     number of atomic types    =            1
     number of electrons       =         8.00
     number of Kohn-Sham states=            8
     kinetic-energy cutoff     =      30.0000  Ry
     charge density cutoff     =     240.0000  Ry
     convergence threshold     =      1.0E-06
     mixing beta               =       0.7000
     number of iterations used =            8  plain     mixing
     Exchange-correlation= PBE
                           (   1   4   3   4   0   0   0)
     nstep                     =            1


     celldm(1)=   8.125822  celldm(2)=   0.000000  celldm(3)=   2.790698
     celldm(4)=   0.000000  celldm(5)=   0.000000  celldm(6)=   0.000000

     crystal axes: (cart. coord. in units of alat)
               a(1) = (   1.000000   0.000000   0.000000 )  
               a(2) = (  -0.500000   0.866025   0.000000 )  
               a(3) = (   0.000000   0.000000   2.790698 )  

     reciprocal axes: (cart. coord. in units 2 pi/alat)
               b(1) = (  1.000000  0.577350  0.000000 )  
               b(2) = (  0.000000  1.154701  0.000000 )  
               b(3) = (  0.000000  0.000000  0.358333 )  


     PseudoPot. # 1 for Si read from file:
     /home/jesus/Documentos/Nanociencia_DFT/pseudopotenciales/Si.pbe-n-rrkjus_psl.1.0.0.UPF
     MD5 check sum: fa25574f73a70a4139f2adfbefec430c
     Pseudo is Ultrasoft + core correction, Zval =  4.0
     Generated using "atomic" code by A. Dal Corso v.6.3
     Using radial grid of 1141 points,  6 beta functions with: 
                l(1) =   0
                l(2) =   0
                l(3) =   1
                l(4) =   1
                l(5) =   2
                l(6) =   2
     Q(r) pseudized with 0 coefficients 


     atomic species   valence    mass     pseudopotential
        Si             4.00    28.08550     Si( 1.00)

      6 Sym. Ops. (no inversion) found



   Cartesian axes

     site n.     atom                  positions (alat units)
         1           Si  tau(   1) = (  -0.0000000   0.5773503   1.3726863  )
         2           Si  tau(   2) = (   0.5000000   0.2886751   1.4877398  )

     number of k points=    44  Methfessel-Paxton smearing, width (Ry)=  0.0100
                       cart. coord. in units 2pi/alat
        k(    1) = (   0.0000000   0.0000000   0.0000000), wk =   0.0058309
        k(    2) = (   0.0000000   0.0000000   0.0511905), wk =   0.0116618
        k(    3) = (   0.0000000   0.0000000   0.1023810), wk =   0.0116618
        k(    4) = (   0.0000000   0.0000000   0.1535714), wk =   0.0116618
        k(    5) = (   0.0000000   0.1649572   0.0000000), wk =   0.0349854
        k(    6) = (   0.0000000   0.1649572   0.0511905), wk =   0.0349854
        k(    7) = (   0.0000000   0.1649572   0.1023810), wk =   0.0349854
        k(    8) = (   0.0000000   0.1649572   0.1535714), wk =   0.0349854
        k(    9) = (   0.0000000   0.3299144   0.0000000), wk =   0.0349854
        k(   10) = (   0.0000000   0.3299144   0.0511905), wk =   0.0349854
        k(   11) = (   0.0000000   0.3299144   0.1023810), wk =   0.0349854
        k(   12) = (   0.0000000   0.3299144   0.1535714), wk =   0.0349854
        k(   13) = (   0.0000000   0.4948717   0.0000000), wk =   0.0349854
        k(   14) = (   0.0000000   0.4948717   0.0511905), wk =   0.0349854
        k(   15) = (   0.0000000   0.4948717   0.1023810), wk =   0.0349854
        k(   16) = (   0.0000000   0.4948717   0.1535714), wk =   0.0349854
        k(   17) = (   0.1428571   0.2474358   0.0000000), wk =   0.0349854
        k(   18) = (   0.1428571   0.2474358   0.0511905), wk =   0.0699708
        k(   19) = (   0.1428571   0.2474358   0.1023810), wk =   0.0699708
        k(   20) = (   0.1428571   0.2474358   0.1535714), wk =   0.0699708
        k(   21) = (   0.1428571   0.4123930   0.0000000), wk =   0.0699708
        k(   22) = (   0.1428571   0.4123930   0.0511905), wk =   0.0699708
        k(   23) = (   0.1428571   0.4123930   0.1023810), wk =   0.0699708
        k(   24) = (   0.1428571   0.4123930   0.1535714), wk =   0.0699708
        k(   25) = (   0.1428571   0.5773503   0.0000000), wk =   0.0349854
        k(   26) = (   0.1428571   0.5773503   0.0511905), wk =   0.0699708
        k(   27) = (   0.1428571   0.5773503   0.1023810), wk =   0.0699708
        k(   28) = (   0.1428571   0.5773503   0.1535714), wk =   0.0699708
        k(   29) = (   0.2857143   0.4948717   0.0000000), wk =   0.0349854
        k(   30) = (   0.2857143   0.4948717   0.0511905), wk =   0.0699708
        k(   31) = (   0.2857143   0.4948717   0.1023810), wk =   0.0699708
        k(   32) = (   0.2857143   0.4948717   0.1535714), wk =   0.0699708
        k(   33) = (   0.0000000  -0.1649572   0.0511905), wk =   0.0349854
        k(   34) = (   0.0000000  -0.1649572   0.1023810), wk =   0.0349854
        k(   35) = (   0.0000000  -0.1649572   0.1535714), wk =   0.0349854
        k(   36) = (   0.0000000  -0.3299144   0.0511905), wk =   0.0349854
        k(   37) = (   0.0000000  -0.3299144   0.1023810), wk =   0.0349854
        k(   38) = (   0.0000000  -0.3299144   0.1535714), wk =   0.0349854
        k(   39) = (   0.0000000  -0.4948717   0.0511905), wk =   0.0349854
        k(   40) = (   0.0000000  -0.4948717   0.1023810), wk =   0.0349854
        k(   41) = (   0.0000000  -0.4948717   0.1535714), wk =   0.0349854
        k(   42) = (  -0.1428571  -0.4123930   0.0511905), wk =   0.0699708
        k(   43) = (  -0.1428571  -0.4123930   0.1023810), wk =   0.0699708
        k(   44) = (  -0.1428571  -0.4123930   0.1535714), wk =   0.0699708

     Dense  grid:    81261 G-vectors     FFT dimensions: (  45,  45, 120)

     Smooth grid:    28789 G-vectors     FFT dimensions: (  30,  30,  80)

     Estimated max dynamical RAM per process >     309.28 MB

     Initial potential from superposition of free atoms

     starting charge    7.99888, renormalised to    8.00000

     negative rho (up, down):  2.846E-06 0.000E+00
     Starting wfcs are    8 randomized atomic wfcs

     total cpu time spent up to now is        2.4 secs

     Self-consistent Calculation

     iteration #  1     ecut=    30.00 Ry     beta= 0.70
     Davidson diagonalization with overlap
     ethr =  1.00E-02,  avg # of iterations =  3.2

     Threshold (ethr) on eigenvalues was too large:
     Diagonalizing with lowered threshold

     Davidson diagonalization with overlap
     ethr =  3.55E-04,  avg # of iterations =  3.8

     negative rho (up, down):  1.171E-07 0.000E+00

     total cpu time spent up to now is        9.3 secs

     total energy              =     -22.68942383 Ry
     estimated scf accuracy    <       0.03163724 Ry

     iteration #  2     ecut=    30.00 Ry     beta= 0.70
     Davidson diagonalization with overlap
     ethr =  3.95E-04,  avg # of iterations =  1.2

     negative rho (up, down):  2.014E-07 0.000E+00

     total cpu time spent up to now is       12.3 secs

     total energy              =     -22.69090521 Ry
     estimated scf accuracy    <       0.00163649 Ry

     iteration #  3     ecut=    30.00 Ry     beta= 0.70
     Davidson diagonalization with overlap
     ethr =  2.05E-05,  avg # of iterations =  8.0

     negative rho (up, down):  2.011E-07 0.000E+00

     total cpu time spent up to now is       16.6 secs

     total energy              =     -22.69106610 Ry
     estimated scf accuracy    <       0.00004200 Ry

     iteration #  4     ecut=    30.00 Ry     beta= 0.70
     Davidson diagonalization with overlap
     ethr =  5.25E-07,  avg # of iterations =  5.7

     negative rho (up, down):  2.301E-07 0.000E+00

     total cpu time spent up to now is       20.9 secs

     End of self-consistent calculation

          k = 0.0000 0.0000 0.0000 (  3573 PWs)   bands (ev):

   -12.0976  -4.9561  -3.6016  -3.6016  -2.7036   0.3128   0.3128   0.3528

          k = 0.0000 0.0000 0.0512 (  3579 PWs)   bands (ev):

   -12.0976  -4.9561  -3.6016  -3.6015  -2.7036   0.3129   0.3129   0.3594

          k = 0.0000 0.0000 0.1024 (  3586 PWs)   bands (ev):

   -12.0976  -4.9562  -3.6016  -3.6016  -2.7037   0.3129   0.3129   0.3746

          k = 0.0000 0.0000 0.1536 (  3574 PWs)   bands (ev):

   -12.0976  -4.9562  -3.6015  -3.6015  -2.7037   0.3129   0.3129   0.3872

          k = 0.0000 0.1650 0.0000 (  3564 PWs)   bands (ev):

   -11.9158  -5.6307  -4.2532  -3.8606  -1.5074   0.2354   0.4881   0.9244

          k = 0.0000 0.1650 0.0512 (  3563 PWs)   bands (ev):

   -11.9158  -5.6307  -4.2532  -3.8606  -1.5074   0.2372   0.4900   0.9244

          k = 0.0000 0.1650 0.1024 (  3580 PWs)   bands (ev):

   -11.9158  -5.6307  -4.2533  -3.8606  -1.5074   0.2412   0.4954   0.9244

          k = 0.0000 0.1650 0.1536 (  3590 PWs)   bands (ev):

   -11.9158  -5.6307  -4.2533  -3.8606  -1.5075   0.2440   0.5000   0.9244

          k = 0.0000 0.3299 0.0000 (  3584 PWs)   bands (ev):

   -11.3892  -7.2643  -4.3025  -3.8971  -1.3878  -0.2976   1.8433   2.3344

          k = 0.0000 0.3299 0.0512 (  3588 PWs)   bands (ev):

   -11.3892  -7.2643  -4.3025  -3.8971  -1.3878  -0.2974   1.8534   2.3344

          k = 0.0000 0.3299 0.1024 (  3599 PWs)   bands (ev):

   -11.3892  -7.2643  -4.3025  -3.8972  -1.3878  -0.2970   1.8748   2.3343

          k = 0.0000 0.3299 0.1536 (  3594 PWs)   bands (ev):

   -11.3892  -7.2644  -4.3025  -3.8972  -1.3878  -0.2965   1.8908   2.3344

          k = 0.0000 0.4949 0.0000 (  3610 PWs)   bands (ev):

   -10.6545  -8.6277  -4.5791  -3.2828  -1.6245  -1.2595   2.7900   3.4412

          k = 0.0000 0.4949 0.0512 (  3613 PWs)   bands (ev):

   -10.6545  -8.6277  -4.5791  -3.2828  -1.6245  -1.2595   2.8125   3.4411

          k = 0.0000 0.4949 0.1024 (  3591 PWs)   bands (ev):

   -10.6545  -8.6277  -4.5791  -3.2829  -1.6245  -1.2595   2.8458   3.4412

          k = 0.0000 0.4949 0.1536 (  3582 PWs)   bands (ev):

   -10.6545  -8.6277  -4.5791  -3.2829  -1.6246  -1.2595   2.8639   3.4412

          k = 0.1429 0.2474 0.0000 (  3593 PWs)   bands (ev):

   -11.5598  -6.7826  -4.4230  -4.0172  -0.5883  -0.1720   0.5405   2.3449

          k = 0.1429 0.2474 0.0512 (  3586 PWs)   bands (ev):

   -11.5598  -6.7826  -4.4230  -4.0173  -0.5883  -0.1719   0.5412   2.0811

          k = 0.1429 0.2474 0.1024 (  3596 PWs)   bands (ev):

   -11.5598  -6.7826  -4.4230  -4.0173  -0.5883  -0.1712   0.5431   2.1447

          k = 0.1429 0.2474 0.1536 (  3582 PWs)   bands (ev):

   -11.5598  -6.7826  -4.4230  -4.0174  -0.5884  -0.1705   0.5447   2.3414

          k = 0.1429 0.4124 0.0000 (  3608 PWs)   bands (ev):

   -10.8938  -8.1557  -5.0056  -3.4194  -1.0581  -0.3776   1.8600   2.5250

          k = 0.1429 0.4124 0.0512 (  3602 PWs)   bands (ev):

   -10.8938  -8.1557  -5.0056  -3.4194  -1.0581  -0.3776   1.8601   2.5507

          k = 0.1429 0.4124 0.1024 (  3602 PWs)   bands (ev):

   -10.8938  -8.1557  -5.0056  -3.4194  -1.0581  -0.3776   1.8610   2.5870

          k = 0.1429 0.4124 0.1536 (  3602 PWs)   bands (ev):

   -10.8938  -8.1557  -5.0056  -3.4194  -1.0581  -0.3775   1.8623   2.5975

          k = 0.1429 0.5774 0.0000 (  3617 PWs)   bands (ev):

   -10.3101  -9.0026  -5.2145  -2.9010  -1.7007  -0.5128   2.5015   3.5426

          k = 0.1429 0.5774 0.0512 (  3615 PWs)   bands (ev):

   -10.3101  -9.0026  -5.2145  -2.9010  -1.7007  -0.5129   2.5009   3.5541

          k = 0.1429 0.5774 0.1024 (  3612 PWs)   bands (ev):

   -10.3101  -9.0026  -5.2145  -2.9010  -1.7007  -0.5128   2.4997   3.5822

          k = 0.1429 0.5774 0.1536 (  3603 PWs)   bands (ev):

   -10.3101  -9.0026  -5.2145  -2.9010  -1.7007  -0.5129   2.4986   3.6075

          k = 0.2857 0.4949 0.0000 (  3621 PWs)   bands (ev):

   -10.1453  -9.1003  -5.6773  -2.7143  -1.7842   1.3169   1.8826   2.0559

          k = 0.2857 0.4949 0.0512 (  3614 PWs)   bands (ev):

   -10.1453  -9.1003  -5.6773  -2.7143  -1.7842   1.3168   1.8830   2.0553

          k = 0.2857 0.4949 0.1024 (  3604 PWs)   bands (ev):

   -10.1453  -9.1003  -5.6773  -2.7143  -1.7842   1.3169   1.8828   2.0541

          k = 0.2857 0.4949 0.1536 (  3620 PWs)   bands (ev):

   -10.1453  -9.1003  -5.6773  -2.7144  -1.7842   1.3168   1.8829   2.0531

          k = 0.0000-0.1650 0.0512 (  3563 PWs)   bands (ev):

   -11.9158  -5.6307  -4.2532  -3.8606  -1.5074   0.2371   0.4907   0.9244

          k = 0.0000-0.1650 0.1024 (  3580 PWs)   bands (ev):

   -11.9158  -5.6307  -4.2533  -3.8606  -1.5075   0.2410   0.4962   0.9244

          k = 0.0000-0.1650 0.1536 (  3590 PWs)   bands (ev):

   -11.9158  -5.6307  -4.2533  -3.8606  -1.5075   0.2442   0.5005   0.9244

          k = 0.0000-0.3299 0.0512 (  3588 PWs)   bands (ev):

   -11.3892  -7.2643  -4.3025  -3.8971  -1.3878  -0.2973   1.8514   2.3343

          k = 0.0000-0.3299 0.1024 (  3599 PWs)   bands (ev):

   -11.3892  -7.2643  -4.3025  -3.8972  -1.3878  -0.2967   1.8723   2.3344

          k = 0.0000-0.3299 0.1536 (  3594 PWs)   bands (ev):

   -11.3892  -7.2643  -4.3025  -3.8972  -1.3878  -0.2964   1.8897   2.3344

          k = 0.0000-0.4949 0.0512 (  3613 PWs)   bands (ev):

   -10.6545  -8.6277  -4.5791  -3.2828  -1.6245  -1.2595   2.7919   3.4412

          k = 0.0000-0.4949 0.1024 (  3591 PWs)   bands (ev):

   -10.6545  -8.6277  -4.5791  -3.2829  -1.6245  -1.2595   2.8170   3.4412

          k = 0.0000-0.4949 0.1536 (  3582 PWs)   bands (ev):

   -10.6545  -8.6277  -4.5791  -3.2829  -1.6246  -1.2595   2.8497   3.4411

          k =-0.1429-0.4124 0.0512 (  3602 PWs)   bands (ev):

   -10.8938  -8.1557  -5.0056  -3.4194  -1.0580  -0.3776   1.8611   2.5219

          k =-0.1429-0.4124 0.1024 (  3602 PWs)   bands (ev):

   -10.8938  -8.1557  -5.0056  -3.4194  -1.0580  -0.3776   1.8625   2.5446

          k =-0.1429-0.4124 0.1536 (  3602 PWs)   bands (ev):

   -10.8938  -8.1557  -5.0056  -3.4194  -1.0580  -0.3775   1.8631   2.5768

     the Fermi energy is    -2.6504 ev

!    total energy              =     -22.69107727 Ry
     estimated scf accuracy    <       0.00000030 Ry
     smearing contrib. (-TS)   =      -0.00012183 Ry
     internal energy E=F+TS    =     -22.69095544 Ry

     The total energy is F=E-TS. E is the sum of the following terms:
     one-electron contribution =     -30.71179844 Ry
     hartree contribution      =      16.43356906 Ry
     xc contribution           =     -11.86919853 Ry
     ewald contribution        =       3.45647246 Ry

     convergence has been achieved in   4 iterations

     negative rho (up, down):  2.301E-07 0.000E+00

     Forces acting on atoms (cartesian axes, Ry/au):

     atom    1 type  1   force =     0.00000000    0.00000000    0.01137466
     atom    2 type  1   force =     0.00000000    0.00000000   -0.01137466

     Total force =     0.016086     Total SCF correction =     0.000408

     BFGS Geometry Optimization

     number of scf cycles    =   1
     number of bfgs steps    =   0

     energy   new            =     -22.6910772735 Ry

     new trust radius        =       0.0113746594 bohr

     The maximum number of steps has been reached.

     End of BFGS Geometry Optimization

ATOMIC_POSITIONS (crystal)
Si            0.3333333300        0.6666666700        0.4923808489
Si            0.6666666700        0.3333333300        0.5326051631



     Writing output data file /home/jesus/Documentos/Nanociencia_DFT/test.save/
     NEW-OLD atomic charge density approx. for the potential

     negative rho (up, down):  2.255E-07 0.000E+00

     Writing output data file /home/jesus/Documentos/Nanociencia_DFT/test.save/
 
     init_run     :      1.60s CPU      1.78s WALL (       1 calls)
     electrons    :     17.43s CPU     18.43s WALL (       1 calls)
     update_pot   :      0.21s CPU      0.21s WALL (       1 calls)
     forces       :      0.61s CPU      0.72s WALL (       1 calls)

     Called by init_run:
     wfcinit      :      0.80s CPU      0.80s WALL (       1 calls)
     potinit      :      0.18s CPU      0.22s WALL (       1 calls)
     hinit0       :      0.32s CPU      0.34s WALL (       1 calls)

     Called by electrons:
     c_bands      :     13.20s CPU     13.28s WALL (       5 calls)
     sum_band     :      2.99s CPU      3.47s WALL (       5 calls)
     v_of_rho     :      0.64s CPU      0.69s WALL (       6 calls)
     newd         :      1.19s CPU      1.83s WALL (       6 calls)
     mix_rho      :      0.04s CPU      0.04s WALL (       5 calls)

     Called by c_bands:
     init_us_2    :      0.54s CPU      0.55s WALL (     528 calls)
     cegterg      :     10.82s CPU     10.88s WALL (     220 calls)

     Called by *egterg:
     cdiaghg      :      0.14s CPU      0.14s WALL (    1138 calls)
     h_psi        :     10.07s CPU     10.13s WALL (    1226 calls)
     s_psi        :      0.35s CPU      0.35s WALL (    1226 calls)
     g_psi        :      0.04s CPU      0.04s WALL (     962 calls)

     Called by h_psi:
     h_psi:calbec :      0.44s CPU      0.44s WALL (    1226 calls)
     vloc_psi     :      9.20s CPU      9.24s WALL (    1226 calls)
     add_vuspsi   :      0.39s CPU      0.39s WALL (    1226 calls)

     General routines
     calbec       :      0.62s CPU      0.63s WALL (    1622 calls)
     fft          :      0.30s CPU      0.32s WALL (      89 calls)
     ffts         :      0.01s CPU      0.01s WALL (      11 calls)
     fftw         :      9.40s CPU      9.44s WALL (   12766 calls)
     interpolate  :      0.03s CPU      0.03s WALL (       6 calls)
     davcio       :      0.00s CPU      0.01s WALL (      44 calls)
 
     Parallel routines
 
     PWSCF        :     20.70s CPU     22.15s WALL

 
   This run was terminated on:  11: 3:41  17Mar2021            

=------------------------------------------------------------------------------=
   JOB DONE.
=------------------------------------------------------------------------------=
