
     Program PWSCF v.6.6 starts on 17Mar2021 at 11: 1:38 

     This program is part of the open-source Quantum ESPRESSO suite
     for quantum simulation of materials; please cite
         "P. Giannozzi et al., J. Phys.:Condens. Matter 21 395502 (2009);
         "P. Giannozzi et al., J. Phys.:Condens. Matter 29 465901 (2017);
          URL http://www.quantum-espresso.org", 
     in publications or presentations arising from this work. More details at
     http://www.quantum-espresso.org/quote

     Parallel version (MPI), running on     1 processors

     MPI processes distributed on     1 nodes
     Fft bands division:     nmany     =       1
     Waiting for input...
     Reading input from standard input
Warning: card &CELL ignored
Warning: card   CELL_DYNAMICS='BFGS', ignored
Warning: card   CELL_DOFREE='ALL', ignored
Warning: card / ignored

     Current dimensions of program PWSCF are:
     Max number of different atomic species (ntypx) = 10
     Max number of k-points (npk) =  40000
     Max angular momentum in pseudopotentials (lmaxx) =  3

     File /home/jesus/Documentos/Nanociencia_DFT/test.update deleted, as requested

     File /home/jesus/Documentos/Nanociencia_DFT/test.bfgs deleted, as requested

     Subspace diagonalization in iterative solution of the eigenvalue problem:
     a serial algorithm will be used

 
     G-vector sticks info
     --------------------
     sticks:   dense  smooth     PW     G-vecs:    dense   smooth      PW
     Sum         847     433    121                63489    22519    3655
 


     bravais-lattice index     =            4
     lattice parameter (alat)  =       7.1810  a.u.
     unit-cell volume          =    1012.6880 (a.u.)^3
     number of atoms/cell      =            2
     number of atomic types    =            1
     number of electrons       =         8.00
     number of Kohn-Sham states=            8
     kinetic-energy cutoff     =      30.0000  Ry
     charge density cutoff     =     240.0000  Ry
     convergence threshold     =      1.0E-06
     mixing beta               =       0.7000
     number of iterations used =            8  plain     mixing
     Exchange-correlation= PBE
                           (   1   4   3   4   0   0   0)
     nstep                     =            1


     celldm(1)=   7.180959  celldm(2)=   0.000000  celldm(3)=   3.157895
     celldm(4)=   0.000000  celldm(5)=   0.000000  celldm(6)=   0.000000

     crystal axes: (cart. coord. in units of alat)
               a(1) = (   1.000000   0.000000   0.000000 )  
               a(2) = (  -0.500000   0.866025   0.000000 )  
               a(3) = (   0.000000   0.000000   3.157895 )  

     reciprocal axes: (cart. coord. in units 2 pi/alat)
               b(1) = (  1.000000  0.577350  0.000000 )  
               b(2) = (  0.000000  1.154701  0.000000 )  
               b(3) = (  0.000000  0.000000  0.316667 )  


     PseudoPot. # 1 for Si read from file:
     /home/jesus/Documentos/Nanociencia_DFT/pseudopotenciales/Si.pbe-n-rrkjus_psl.1.0.0.UPF
     MD5 check sum: fa25574f73a70a4139f2adfbefec430c
     Pseudo is Ultrasoft + core correction, Zval =  4.0
     Generated using "atomic" code by A. Dal Corso v.6.3
     Using radial grid of 1141 points,  6 beta functions with: 
                l(1) =   0
                l(2) =   0
                l(3) =   1
                l(4) =   1
                l(5) =   2
                l(6) =   2
     Q(r) pseudized with 0 coefficients 


     atomic species   valence    mass     pseudopotential
        Si             4.00    28.08550     Si( 1.00)

      6 Sym. Ops. (no inversion) found



   Cartesian axes

     site n.     atom                  positions (alat units)
         1           Si  tau(   1) = (  -0.0000000   0.5773503   1.5533029  )
         2           Si  tau(   2) = (   0.5000000   0.2886751   1.6834950  )

     number of k points=    44  Methfessel-Paxton smearing, width (Ry)=  0.0100
                       cart. coord. in units 2pi/alat
        k(    1) = (   0.0000000   0.0000000   0.0000000), wk =   0.0058309
        k(    2) = (   0.0000000   0.0000000   0.0452381), wk =   0.0116618
        k(    3) = (   0.0000000   0.0000000   0.0904762), wk =   0.0116618
        k(    4) = (   0.0000000   0.0000000   0.1357143), wk =   0.0116618
        k(    5) = (   0.0000000   0.1649572   0.0000000), wk =   0.0349854
        k(    6) = (   0.0000000   0.1649572   0.0452381), wk =   0.0349854
        k(    7) = (   0.0000000   0.1649572   0.0904762), wk =   0.0349854
        k(    8) = (   0.0000000   0.1649572   0.1357143), wk =   0.0349854
        k(    9) = (   0.0000000   0.3299144   0.0000000), wk =   0.0349854
        k(   10) = (   0.0000000   0.3299144   0.0452381), wk =   0.0349854
        k(   11) = (   0.0000000   0.3299144   0.0904762), wk =   0.0349854
        k(   12) = (   0.0000000   0.3299144   0.1357143), wk =   0.0349854
        k(   13) = (   0.0000000   0.4948717   0.0000000), wk =   0.0349854
        k(   14) = (   0.0000000   0.4948717   0.0452381), wk =   0.0349854
        k(   15) = (   0.0000000   0.4948717   0.0904762), wk =   0.0349854
        k(   16) = (   0.0000000   0.4948717   0.1357143), wk =   0.0349854
        k(   17) = (   0.1428571   0.2474358   0.0000000), wk =   0.0349854
        k(   18) = (   0.1428571   0.2474358   0.0452381), wk =   0.0699708
        k(   19) = (   0.1428571   0.2474358   0.0904762), wk =   0.0699708
        k(   20) = (   0.1428571   0.2474358   0.1357143), wk =   0.0699708
        k(   21) = (   0.1428571   0.4123930   0.0000000), wk =   0.0699708
        k(   22) = (   0.1428571   0.4123930   0.0452381), wk =   0.0699708
        k(   23) = (   0.1428571   0.4123930   0.0904762), wk =   0.0699708
        k(   24) = (   0.1428571   0.4123930   0.1357143), wk =   0.0699708
        k(   25) = (   0.1428571   0.5773503   0.0000000), wk =   0.0349854
        k(   26) = (   0.1428571   0.5773503   0.0452381), wk =   0.0699708
        k(   27) = (   0.1428571   0.5773503   0.0904762), wk =   0.0699708
        k(   28) = (   0.1428571   0.5773503   0.1357143), wk =   0.0699708
        k(   29) = (   0.2857143   0.4948717   0.0000000), wk =   0.0349854
        k(   30) = (   0.2857143   0.4948717   0.0452381), wk =   0.0699708
        k(   31) = (   0.2857143   0.4948717   0.0904762), wk =   0.0699708
        k(   32) = (   0.2857143   0.4948717   0.1357143), wk =   0.0699708
        k(   33) = (   0.0000000  -0.1649572   0.0452381), wk =   0.0349854
        k(   34) = (   0.0000000  -0.1649572   0.0904762), wk =   0.0349854
        k(   35) = (   0.0000000  -0.1649572   0.1357143), wk =   0.0349854
        k(   36) = (   0.0000000  -0.3299144   0.0452381), wk =   0.0349854
        k(   37) = (   0.0000000  -0.3299144   0.0904762), wk =   0.0349854
        k(   38) = (   0.0000000  -0.3299144   0.1357143), wk =   0.0349854
        k(   39) = (   0.0000000  -0.4948717   0.0452381), wk =   0.0349854
        k(   40) = (   0.0000000  -0.4948717   0.0904762), wk =   0.0349854
        k(   41) = (   0.0000000  -0.4948717   0.1357143), wk =   0.0349854
        k(   42) = (  -0.1428571  -0.4123930   0.0452381), wk =   0.0699708
        k(   43) = (  -0.1428571  -0.4123930   0.0904762), wk =   0.0699708
        k(   44) = (  -0.1428571  -0.4123930   0.1357143), wk =   0.0699708

     Dense  grid:    63489 G-vectors     FFT dimensions: (  36,  36, 120)

     Smooth grid:    22519 G-vectors     FFT dimensions: (  25,  25,  80)

     Estimated max dynamical RAM per process >     239.55 MB

     Initial potential from superposition of free atoms

     starting charge    7.99888, renormalised to    8.00000

     negative rho (up, down):  2.345E-06 0.000E+00
     Starting wfcs are    8 randomized atomic wfcs

     total cpu time spent up to now is        2.0 secs

     Self-consistent Calculation

     iteration #  1     ecut=    30.00 Ry     beta= 0.70
     Davidson diagonalization with overlap
     ethr =  1.00E-02,  avg # of iterations =  4.4

     Threshold (ethr) on eigenvalues was too large:
     Diagonalizing with lowered threshold

     Davidson diagonalization with overlap
     ethr =  8.55E-04,  avg # of iterations =  1.5

     negative rho (up, down):  3.156E-07 0.000E+00

     total cpu time spent up to now is        6.7 secs

     total energy              =     -22.73534773 Ry
     estimated scf accuracy    <       0.07484916 Ry

     iteration #  2     ecut=    30.00 Ry     beta= 0.70
     Davidson diagonalization with overlap
     ethr =  9.36E-04,  avg # of iterations =  2.6

     negative rho (up, down):  5.038E-07 0.000E+00

     total cpu time spent up to now is        9.0 secs

     total energy              =     -22.74386038 Ry
     estimated scf accuracy    <       0.00194022 Ry

     iteration #  3     ecut=    30.00 Ry     beta= 0.70
     Davidson diagonalization with overlap
     ethr =  2.43E-05,  avg # of iterations =  6.6

     negative rho (up, down):  5.569E-07 0.000E+00

     total cpu time spent up to now is       12.0 secs

     total energy              =     -22.74408434 Ry
     estimated scf accuracy    <       0.00013189 Ry

     iteration #  4     ecut=    30.00 Ry     beta= 0.70
     Davidson diagonalization with overlap
     ethr =  1.65E-06,  avg # of iterations =  4.3

     negative rho (up, down):  5.009E-07 0.000E+00

     total cpu time spent up to now is       14.7 secs

     total energy              =     -22.74409669 Ry
     estimated scf accuracy    <       0.00000368 Ry

     iteration #  5     ecut=    30.00 Ry     beta= 0.70
     Davidson diagonalization with overlap
     ethr =  4.60E-08,  avg # of iterations =  2.4

     negative rho (up, down):  4.675E-07 0.000E+00

     total cpu time spent up to now is       17.1 secs

     total energy              =     -22.74409784 Ry
     estimated scf accuracy    <       0.00000262 Ry

     iteration #  6     ecut=    30.00 Ry     beta= 0.70
     Davidson diagonalization with overlap
     ethr =  3.28E-08,  avg # of iterations =  1.3

     negative rho (up, down):  4.450E-07 0.000E+00

     total cpu time spent up to now is       19.2 secs

     End of self-consistent calculation

          k = 0.0000 0.0000 0.0000 (  2823 PWs)   bands (ev):

   -12.8686  -4.9471  -2.7407  -2.7407   0.7724   0.7724   1.4951   1.4951

          k = 0.0000 0.0000 0.0452 (  2823 PWs)   bands (ev):

   -12.8686  -4.9471  -2.7407  -2.7407   0.7724   0.7799   1.4951   1.4951

          k = 0.0000 0.0000 0.0905 (  2836 PWs)   bands (ev):

   -12.8686  -4.9471  -2.7407  -2.7407   0.7724   0.7975   1.4951   1.4951

          k = 0.0000 0.0000 0.1357 (  2824 PWs)   bands (ev):

   -12.8686  -4.9471  -2.7407  -2.7407   0.7724   0.8123   1.4951   1.4951

          k = 0.0000 0.1650 0.0000 (  2803 PWs)   bands (ev):

   -12.6214  -4.8192  -4.1216  -3.1375   0.8088   0.9553   2.3611   2.5082

          k = 0.0000 0.1650 0.0452 (  2803 PWs)   bands (ev):

   -12.6214  -4.8192  -4.1216  -3.1375   0.8093   0.9607   2.3611   2.5105

          k = 0.0000 0.1650 0.0905 (  2805 PWs)   bands (ev):

   -12.6214  -4.8192  -4.1216  -3.1375   0.8104   0.9734   2.3611   2.5124

          k = 0.0000 0.1650 0.1357 (  2807 PWs)   bands (ev):

   -12.6214  -4.8192  -4.1216  -3.1375   0.8113   0.9841   2.3611   2.5128

          k = 0.0000 0.3299 0.0000 (  2809 PWs)   bands (ev):

   -11.8987  -6.5663  -3.9421  -3.7709   0.0206   0.8029   2.6779   4.2723

          k = 0.0000 0.3299 0.0452 (  2804 PWs)   bands (ev):

   -11.8987  -6.5663  -3.9421  -3.7709   0.0206   0.8033   2.7019   4.2724

          k = 0.0000 0.3299 0.0905 (  2819 PWs)   bands (ev):

   -11.8987  -6.5663  -3.9422  -3.7709   0.0206   0.8047   2.7449   4.2723

          k = 0.0000 0.3299 0.1357 (  2810 PWs)   bands (ev):

   -11.8987  -6.5663  -3.9422  -3.7709   0.0206   0.8060   2.7760   4.2724

          k = 0.0000 0.4949 0.0000 (  2812 PWs)   bands (ev):

   -10.8422  -8.4516  -4.1518  -2.9704  -0.7389  -0.2760   3.4847   5.0737

          k = 0.0000 0.4949 0.0452 (  2819 PWs)   bands (ev):

   -10.8422  -8.4516  -4.1518  -2.9704  -0.7390  -0.2760   3.4978   5.0736

          k = 0.0000 0.4949 0.0905 (  2801 PWs)   bands (ev):

   -10.8422  -8.4516  -4.1518  -2.9704  -0.7390  -0.2759   3.5188   5.0738

          k = 0.0000 0.4949 0.1357 (  2808 PWs)   bands (ev):

   -10.8422  -8.4516  -4.1518  -2.9704  -0.7390  -0.2759   3.5317   5.0737

          k = 0.1429 0.2474 0.0000 (  2810 PWs)   bands (ev):

   -12.1349  -5.8407  -4.1381  -4.0287   0.9295   1.6562   1.9476   2.8790

          k = 0.1429 0.2474 0.0452 (  2817 PWs)   bands (ev):

   -12.1349  -5.8407  -4.1381  -4.0287   0.9310   1.6574   1.9476   2.8951

          k = 0.1429 0.2474 0.0905 (  2818 PWs)   bands (ev):

   -12.1349  -5.8407  -4.1381  -4.0287   0.9344   1.6603   1.9476   2.9435

          k = 0.1429 0.2474 0.1357 (  2798 PWs)   bands (ev):

   -12.1349  -5.8407  -4.1381  -4.0287   0.9371   1.6626   1.9476   3.0116

          k = 0.1429 0.4124 0.0000 (  2808 PWs)   bands (ev):

   -11.2098  -7.6532  -4.8719  -3.2810  -0.0559   1.2503   3.1481   3.6825

          k = 0.1429 0.4124 0.0452 (  2809 PWs)   bands (ev):

   -11.2098  -7.6532  -4.8719  -3.2810  -0.0559   1.2504   3.1658   3.6724

          k = 0.1429 0.4124 0.0905 (  2813 PWs)   bands (ev):

   -11.2098  -7.6532  -4.8719  -3.2810  -0.0559   1.2504   3.1936   3.6692

          k = 0.1429 0.4124 0.1357 (  2816 PWs)   bands (ev):

   -11.2098  -7.6532  -4.8719  -3.2810  -0.0558   1.2505   3.2104   3.6784

          k = 0.1429 0.5774 0.0000 (  2816 PWs)   bands (ev):

   -10.3366  -8.8798  -5.1512  -2.4727  -1.0693   1.0256   3.2937   4.4867

          k = 0.1429 0.5774 0.0452 (  2807 PWs)   bands (ev):

   -10.3366  -8.8798  -5.1512  -2.4726  -1.0693   1.0256   3.2937   4.4935

          k = 0.1429 0.5774 0.0905 (  2810 PWs)   bands (ev):

   -10.3366  -8.8798  -5.1512  -2.4727  -1.0693   1.0256   3.2935   4.5095

          k = 0.1429 0.5774 0.1357 (  2826 PWs)   bands (ev):

   -10.3366  -8.8798  -5.1512  -2.4727  -1.0693   1.0256   3.2933   4.5235

          k = 0.2857 0.4949 0.0000 (  2798 PWs)   bands (ev):

   -10.1643  -8.7846  -5.9609  -2.2934  -1.0266   2.5321   3.5086   4.0715

          k = 0.2857 0.4949 0.0452 (  2791 PWs)   bands (ev):

   -10.1643  -8.7846  -5.9609  -2.2934  -1.0266   2.5319   3.5087   4.0714

          k = 0.2857 0.4949 0.0905 (  2799 PWs)   bands (ev):

   -10.1643  -8.7846  -5.9609  -2.2934  -1.0266   2.5315   3.5089   4.0716

          k = 0.2857 0.4949 0.1357 (  2794 PWs)   bands (ev):

   -10.1643  -8.7846  -5.9609  -2.2934  -1.0266   2.5312   3.5091   4.0716

          k = 0.0000-0.1650 0.0452 (  2803 PWs)   bands (ev):

   -12.6214  -4.8192  -4.1216  -3.1375   0.8095   0.9607   2.3611   2.5063

          k = 0.0000-0.1650 0.0905 (  2805 PWs)   bands (ev):

   -12.6214  -4.8192  -4.1216  -3.1375   0.8107   0.9734   2.3611   2.5054

          k = 0.0000-0.1650 0.1357 (  2807 PWs)   bands (ev):

   -12.6214  -4.8192  -4.1216  -3.1375   0.8114   0.9841   2.3611   2.5076

          k = 0.0000-0.3299 0.0452 (  2804 PWs)   bands (ev):

   -11.8987  -6.5663  -3.9421  -3.7709   0.0206   0.8038   2.6844   4.2724

          k = 0.0000-0.3299 0.0905 (  2819 PWs)   bands (ev):

   -11.8987  -6.5663  -3.9422  -3.7709   0.0206   0.8054   2.7190   4.2724

          k = 0.0000-0.3299 0.1357 (  2810 PWs)   bands (ev):

   -11.8987  -6.5663  -3.9422  -3.7709   0.0206   0.8063   2.7621   4.2724

          k = 0.0000-0.4949 0.0452 (  2819 PWs)   bands (ev):

   -10.8422  -8.4516  -4.1518  -2.9704  -0.7390  -0.2760   3.4878   5.0737

          k = 0.0000-0.4949 0.0905 (  2801 PWs)   bands (ev):

   -10.8422  -8.4516  -4.1518  -2.9704  -0.7390  -0.2760   3.5053   5.0737

          k = 0.0000-0.4949 0.1357 (  2808 PWs)   bands (ev):

   -10.8422  -8.4516  -4.1518  -2.9704  -0.7390  -0.2759   3.5252   5.0737

          k =-0.1429-0.4124 0.0452 (  2809 PWs)   bands (ev):

   -11.2098  -7.6532  -4.8719  -3.2810  -0.0558   1.2503   3.1519   3.6930

          k =-0.1429-0.4124 0.0905 (  2813 PWs)   bands (ev):

   -11.2098  -7.6532  -4.8719  -3.2810  -0.0558   1.2504   3.1741   3.6985

          k =-0.1429-0.4124 0.1357 (  2816 PWs)   bands (ev):

   -11.2098  -7.6532  -4.8719  -3.2810  -0.0558   1.2504   3.2006   3.6931

     the Fermi energy is    -1.1689 ev

!    total energy              =     -22.74409828 Ry
     estimated scf accuracy    <       0.00000005 Ry
     smearing contrib. (-TS)   =       0.00015249 Ry
     internal energy E=F+TS    =     -22.74425077 Ry

     The total energy is F=E-TS. E is the sum of the following terms:
     one-electron contribution =     -39.17656765 Ry
     hartree contribution      =      20.91320595 Ry
     xc contribution           =     -12.18685177 Ry
     ewald contribution        =       7.70596270 Ry

     convergence has been achieved in   6 iterations

     negative rho (up, down):  4.450E-07 0.000E+00

     Forces acting on atoms (cartesian axes, Ry/au):

     atom    1 type  1   force =     0.00000000    0.00000000   -0.00239175
     atom    2 type  1   force =     0.00000000    0.00000000    0.00239175

     Total force =     0.003382     Total SCF correction =     0.000083

     BFGS Geometry Optimization

     number of scf cycles    =   1
     number of bfgs steps    =   0

     energy   new            =     -22.7440982819 Ry

     new trust radius        =       0.0023917507 bohr

     The maximum number of steps has been reached.

     End of BFGS Geometry Optimization

ATOMIC_POSITIONS (crystal)
Si            0.3333333300        0.6666666700        0.4917737763
Si            0.6666666700        0.3333333300        0.5332122357



     Writing output data file /home/jesus/Documentos/Nanociencia_DFT/test.save/
     NEW-OLD atomic charge density approx. for the potential

     negative rho (up, down):  4.488E-07 0.000E+00

     Writing output data file /home/jesus/Documentos/Nanociencia_DFT/test.save/
 
     init_run     :      1.18s CPU      1.34s WALL (       1 calls)
     electrons    :     16.18s CPU     17.24s WALL (       1 calls)
     update_pot   :      0.16s CPU      0.16s WALL (       1 calls)
     forces       :      0.45s CPU      0.54s WALL (       1 calls)

     Called by init_run:
     wfcinit      :      0.56s CPU      0.56s WALL (       1 calls)
     potinit      :      0.12s CPU      0.14s WALL (       1 calls)
     hinit0       :      0.31s CPU      0.33s WALL (       1 calls)

     Called by electrons:
     c_bands      :     11.83s CPU     11.89s WALL (       7 calls)
     sum_band     :      3.02s CPU      3.55s WALL (       7 calls)
     v_of_rho     :      0.56s CPU      0.59s WALL (       8 calls)
     newd         :      1.14s CPU      1.76s WALL (       8 calls)
     mix_rho      :      0.04s CPU      0.04s WALL (       7 calls)

     Called by c_bands:
     init_us_2    :      0.56s CPU      0.57s WALL (     704 calls)
     cegterg      :      9.24s CPU      9.30s WALL (     308 calls)

     Called by *egterg:
     cdiaghg      :      0.15s CPU      0.15s WALL (    1283 calls)
     h_psi        :      8.40s CPU      8.46s WALL (    1371 calls)
     s_psi        :      0.30s CPU      0.31s WALL (    1371 calls)
     g_psi        :      0.04s CPU      0.04s WALL (    1019 calls)

     Called by h_psi:
     h_psi:calbec :      0.41s CPU      0.41s WALL (    1371 calls)
     vloc_psi     :      7.61s CPU      7.65s WALL (    1371 calls)
     add_vuspsi   :      0.34s CPU      0.34s WALL (    1371 calls)

     General routines
     calbec       :      0.58s CPU      0.58s WALL (    1855 calls)
     fft          :      0.22s CPU      0.24s WALL (     115 calls)
     ffts         :      0.01s CPU      0.01s WALL (      15 calls)
     fftw         :      7.88s CPU      7.93s WALL (   16594 calls)
     interpolate  :      0.03s CPU      0.03s WALL (       8 calls)
     davcio       :      0.00s CPU      0.00s WALL (      44 calls)
 
     Parallel routines
 
     PWSCF        :     18.76s CPU     20.17s WALL

 
   This run was terminated on:  11: 1:58  17Mar2021            

=------------------------------------------------------------------------------=
   JOB DONE.
=------------------------------------------------------------------------------=
