
     Program PWSCF v.6.6 starts on  2Apr2021 at 15:51:41 

     This program is part of the open-source Quantum ESPRESSO suite
     for quantum simulation of materials; please cite
         "P. Giannozzi et al., J. Phys.:Condens. Matter 21 395502 (2009);
         "P. Giannozzi et al., J. Phys.:Condens. Matter 29 465901 (2017);
          URL http://www.quantum-espresso.org", 
     in publications or presentations arising from this work. More details at
     http://www.quantum-espresso.org/quote

     Parallel version (MPI), running on     1 processors

     MPI processes distributed on     1 nodes
     Fft bands division:     nmany     =       1
     Waiting for input...
     Reading input from standard input
Warning: card &CELL ignored
Warning: card   CELL_DYNAMICS='BFGS', ignored
Warning: card   CELL_DOFREE='ALL', ignored
Warning: card / ignored

     Current dimensions of program PWSCF are:
     Max number of different atomic species (ntypx) = 10
     Max number of k-points (npk) =  40000
     Max angular momentum in pseudopotentials (lmaxx) =  3

     File /home/jesus/Documentos/Nanociencia_DFT/test.update deleted, as requested

     File /home/jesus/Documentos/Nanociencia_DFT/test.bfgs deleted, as requested

     Subspace diagonalization in iterative solution of the eigenvalue problem:
     a serial algorithm will be used

 
     G-vector sticks info
     --------------------
     sticks:   dense  smooth     PW     G-vecs:    dense   smooth      PW
     Sum         913     439    127                67011    23641    3817
 


     bravais-lattice index     =            4
     lattice parameter (alat)  =       7.3699  a.u.
     unit-cell volume          =    1066.6887 (a.u.)^3
     number of atoms/cell      =            2
     number of atomic types    =            1
     number of electrons       =         8.00
     number of Kohn-Sham states=            8
     kinetic-energy cutoff     =      30.0000  Ry
     charge density cutoff     =     240.0000  Ry
     convergence threshold     =      1.0E-06
     mixing beta               =       0.7000
     number of iterations used =            8  plain     mixing
     Exchange-correlation= PBE
                           (   1   4   3   4   0   0   0)
     nstep                     =            1


     celldm(1)=   7.369932  celldm(2)=   0.000000  celldm(3)=   3.076923
     celldm(4)=   0.000000  celldm(5)=   0.000000  celldm(6)=   0.000000

     crystal axes: (cart. coord. in units of alat)
               a(1) = (   1.000000   0.000000   0.000000 )  
               a(2) = (  -0.500000   0.866025   0.000000 )  
               a(3) = (   0.000000   0.000000   3.076923 )  

     reciprocal axes: (cart. coord. in units 2 pi/alat)
               b(1) = (  1.000000  0.577350  0.000000 )  
               b(2) = (  0.000000  1.154701  0.000000 )  
               b(3) = (  0.000000  0.000000  0.325000 )  


     PseudoPot. # 1 for Si read from file:
     /home/jesus/Documentos/Nanociencia_DFT/pseudopotenciales/Si.pbe-n-rrkjus_psl.1.0.0.UPF
     MD5 check sum: fa25574f73a70a4139f2adfbefec430c
     Pseudo is Ultrasoft + core correction, Zval =  4.0
     Generated using "atomic" code by A. Dal Corso v.6.3
     Using radial grid of 1141 points,  6 beta functions with: 
                l(1) =   0
                l(2) =   0
                l(3) =   1
                l(4) =   1
                l(5) =   2
                l(6) =   2
     Q(r) pseudized with 0 coefficients 


     atomic species   valence    mass     pseudopotential
        Si             4.00    28.08550     Si( 1.00)

      6 Sym. Ops. (no inversion) found



   Cartesian axes

     site n.     atom                  positions (alat units)
         1           Si  tau(   1) = (  -0.0000000   0.5773503   1.5134746  )
         2           Si  tau(   2) = (   0.5000000   0.2886751   1.6403285  )

     number of k points=     8  Methfessel-Paxton smearing, width (Ry)=  0.0100
                       cart. coord. in units 2pi/alat
        k(    1) = (   0.0000000   0.0000000   0.0000000), wk =   0.0408163
        k(    2) = (   0.0000000   0.1649572   0.0000000), wk =   0.2448980
        k(    3) = (   0.0000000   0.3299144   0.0000000), wk =   0.2448980
        k(    4) = (   0.0000000   0.4948717   0.0000000), wk =   0.2448980
        k(    5) = (   0.1428571   0.2474358   0.0000000), wk =   0.2448980
        k(    6) = (   0.1428571   0.4123930   0.0000000), wk =   0.4897959
        k(    7) = (   0.1428571   0.5773503   0.0000000), wk =   0.2448980
        k(    8) = (   0.2857143   0.4948717   0.0000000), wk =   0.2448980

     Dense  grid:    67011 G-vectors     FFT dimensions: (  40,  40, 120)

     Smooth grid:    23641 G-vectors     FFT dimensions: (  25,  25,  80)

     Estimated max dynamical RAM per process >     241.63 MB

     Initial potential from superposition of free atoms

     starting charge    7.99888, renormalised to    8.00000

     negative rho (up, down):  2.431E-06 0.000E+00
     Starting wfcs are    8 randomized atomic wfcs

     total cpu time spent up to now is        1.7 secs

     Self-consistent Calculation

     iteration #  1     ecut=    30.00 Ry     beta= 0.70
     Davidson diagonalization with overlap
     ethr =  1.00E-02,  avg # of iterations =  4.2

     Threshold (ethr) on eigenvalues was too large:
     Diagonalizing with lowered threshold

     Davidson diagonalization with overlap
     ethr =  6.97E-04,  avg # of iterations =  1.9

     negative rho (up, down):  1.126E-06 0.000E+00

     total cpu time spent up to now is        3.4 secs

     total energy              =     -22.73902116 Ry
     estimated scf accuracy    <       0.06110387 Ry

     iteration #  2     ecut=    30.00 Ry     beta= 0.70
     Davidson diagonalization with overlap
     ethr =  7.64E-04,  avg # of iterations =  2.5

     negative rho (up, down):  1.559E-06 0.000E+00

     total cpu time spent up to now is        4.3 secs

     total energy              =     -22.74489657 Ry
     estimated scf accuracy    <       0.00185769 Ry

     iteration #  3     ecut=    30.00 Ry     beta= 0.70
     Davidson diagonalization with overlap
     ethr =  2.32E-05,  avg # of iterations =  6.2

     negative rho (up, down):  2.007E-06 0.000E+00

     total cpu time spent up to now is        5.4 secs

     total energy              =     -22.74507568 Ry
     estimated scf accuracy    <       0.00010609 Ry

     iteration #  4     ecut=    30.00 Ry     beta= 0.70
     Davidson diagonalization with overlap
     ethr =  1.33E-06,  avg # of iterations =  3.9

     negative rho (up, down):  2.004E-06 0.000E+00

     total cpu time spent up to now is        6.4 secs

     End of self-consistent calculation

          k = 0.0000 0.0000 0.0000 (  2979 PWs)   bands (ev):

   -12.7197  -4.9181  -2.9928  -2.9928  -0.1007   0.6979   1.2012   1.2012

          k = 0.0000 0.1650 0.0000 (  2979 PWs)   bands (ev):

   -12.4876  -4.9184  -4.2552  -3.3553   0.3733   0.8259   1.8509   2.0070

          k = 0.0000 0.3299 0.0000 (  2981 PWs)   bands (ev):

   -11.8100  -6.7408  -3.9444  -3.9433  -0.3046   0.5589   2.5253   3.8067

          k = 0.0000 0.4949 0.0000 (  2943 PWs)   bands (ev):

   -10.8299  -8.5072  -4.3001  -3.0552  -0.9356  -0.5314   3.3262   4.7192

          k = 0.1429 0.2474 0.0000 (  2981 PWs)   bands (ev):

   -12.0311  -6.0739  -4.1636  -4.1234   0.6955   1.3703   1.3761   2.6703

          k = 0.1429 0.4124 0.0000 (  2946 PWs)   bands (ev):

   -11.1661  -7.7894  -4.9466  -3.3265  -0.2959   0.8791   3.0050   3.3538

          k = 0.1429 0.5774 0.0000 (  2952 PWs)   bands (ev):

   -10.3645  -8.9238  -5.2112  -2.5880  -1.2223   0.6629   3.1044   4.2673

          k = 0.2857 0.4949 0.0000 (  2936 PWs)   bands (ev):

   -10.1908  -8.8872  -5.9301  -2.4064  -1.2174   2.4072   3.1442   3.4505

     the Fermi energy is    -1.3345 ev

!    total energy              =     -22.74508828 Ry
     estimated scf accuracy    <       0.00000065 Ry
     smearing contrib. (-TS)   =       0.00014292 Ry
     internal energy E=F+TS    =     -22.74523120 Ry

     The total energy is F=E-TS. E is the sum of the following terms:
     one-electron contribution =     -37.18034425 Ry
     hartree contribution      =      19.85198572 Ry
     xc contribution           =     -12.11163711 Ry
     ewald contribution        =       6.69476443 Ry

     convergence has been achieved in   4 iterations

     negative rho (up, down):  2.004E-06 0.000E+00

     Forces acting on atoms (cartesian axes, Ry/au):

     atom    1 type  1   force =     0.00000000    0.00000000    0.00545185
     atom    2 type  1   force =     0.00000000    0.00000000   -0.00545185

     Total force =     0.007710     Total SCF correction =     0.000265

     BFGS Geometry Optimization

     number of scf cycles    =   1
     number of bfgs steps    =   0

     energy   new            =     -22.7450882838 Ry

     new trust radius        =       0.0054518540 bohr

     The maximum number of steps has been reached.

     End of BFGS Geometry Optimization

ATOMIC_POSITIONS (crystal)
Si            0.3333333300        0.6666666700        0.4921196644
Si            0.6666666700        0.3333333300        0.5328663476



     Writing output data file /home/jesus/Documentos/Nanociencia_DFT/test.save/
     NEW-OLD atomic charge density approx. for the potential

     negative rho (up, down):  2.013E-06 0.000E+00

     Writing output data file /home/jesus/Documentos/Nanociencia_DFT/test.save/
 
     init_run     :      0.87s CPU      1.03s WALL (       1 calls)
     electrons    :      3.85s CPU      4.66s WALL (       1 calls)
     update_pot   :      0.18s CPU      0.18s WALL (       1 calls)
     forces       :      0.38s CPU      0.46s WALL (       1 calls)

     Called by init_run:
     wfcinit      :      0.11s CPU      0.11s WALL (       1 calls)
     potinit      :      0.16s CPU      0.18s WALL (       1 calls)
     hinit0       :      0.33s CPU      0.36s WALL (       1 calls)

     Called by electrons:
     c_bands      :      1.73s CPU      1.74s WALL (       5 calls)
     sum_band     :      1.17s CPU      1.56s WALL (       5 calls)
     v_of_rho     :      0.53s CPU      0.56s WALL (       6 calls)
     newd         :      0.96s CPU      1.52s WALL (       6 calls)
     mix_rho      :      0.03s CPU      0.03s WALL (       5 calls)

     Called by c_bands:
     init_us_2    :      0.09s CPU      0.09s WALL (      96 calls)
     cegterg      :      1.35s CPU      1.36s WALL (      40 calls)

     Called by *egterg:
     cdiaghg      :      0.02s CPU      0.02s WALL (     182 calls)
     h_psi        :      1.22s CPU      1.23s WALL (     198 calls)
     s_psi        :      0.05s CPU      0.05s WALL (     198 calls)
     g_psi        :      0.01s CPU      0.01s WALL (     150 calls)

     Called by h_psi:
     h_psi:calbec :      0.06s CPU      0.06s WALL (     198 calls)
     vloc_psi     :      1.09s CPU      1.10s WALL (     198 calls)
     add_vuspsi   :      0.06s CPU      0.06s WALL (     198 calls)

     General routines
     calbec       :      0.09s CPU      0.09s WALL (     270 calls)
     fft          :      0.23s CPU      0.25s WALL (      89 calls)
     ffts         :      0.01s CPU      0.01s WALL (      11 calls)
     fftw         :      1.12s CPU      1.13s WALL (    2272 calls)
     interpolate  :      0.02s CPU      0.02s WALL (       6 calls)
     davcio       :      0.00s CPU      0.00s WALL (       8 calls)
 
     Parallel routines
 
     PWSCF        :      6.18s CPU      7.30s WALL

 
   This run was terminated on:  15:51:48   2Apr2021            

=------------------------------------------------------------------------------=
   JOB DONE.
=------------------------------------------------------------------------------=
