
     Program PWSCF v.6.6 starts on 17Mar2021 at 11: 1: 1 

     This program is part of the open-source Quantum ESPRESSO suite
     for quantum simulation of materials; please cite
         "P. Giannozzi et al., J. Phys.:Condens. Matter 21 395502 (2009);
         "P. Giannozzi et al., J. Phys.:Condens. Matter 29 465901 (2017);
          URL http://www.quantum-espresso.org", 
     in publications or presentations arising from this work. More details at
     http://www.quantum-espresso.org/quote

     Parallel version (MPI), running on     1 processors

     MPI processes distributed on     1 nodes
     Fft bands division:     nmany     =       1
     Waiting for input...
     Reading input from standard input
Warning: card &CELL ignored
Warning: card   CELL_DYNAMICS='BFGS', ignored
Warning: card   CELL_DOFREE='ALL', ignored
Warning: card / ignored

     Current dimensions of program PWSCF are:
     Max number of different atomic species (ntypx) = 10
     Max number of k-points (npk) =  40000
     Max angular momentum in pseudopotentials (lmaxx) =  3

     File /home/jesus/Documentos/Nanociencia_DFT/test.update deleted, as requested

     File /home/jesus/Documentos/Nanociencia_DFT/test.bfgs deleted, as requested

     Subspace diagonalization in iterative solution of the eigenvalue problem:
     a serial algorithm will be used

 
     G-vector sticks info
     --------------------
     sticks:   dense  smooth     PW     G-vecs:    dense   smooth      PW
     Sum         769     379    121                57015    20149    3391
 


     bravais-lattice index     =            4
     lattice parameter (alat)  =       6.8030  a.u.
     unit-cell volume          =     908.8945 (a.u.)^3
     number of atoms/cell      =            2
     number of atomic types    =            1
     number of electrons       =         8.00
     number of Kohn-Sham states=            8
     kinetic-energy cutoff     =      30.0000  Ry
     charge density cutoff     =     240.0000  Ry
     convergence threshold     =      1.0E-06
     mixing beta               =       0.7000
     number of iterations used =            8  plain     mixing
     Exchange-correlation= PBE
                           (   1   4   3   4   0   0   0)
     nstep                     =            1


     celldm(1)=   6.803014  celldm(2)=   0.000000  celldm(3)=   3.333333
     celldm(4)=   0.000000  celldm(5)=   0.000000  celldm(6)=   0.000000

     crystal axes: (cart. coord. in units of alat)
               a(1) = (   1.000000   0.000000   0.000000 )  
               a(2) = (  -0.500000   0.866025   0.000000 )  
               a(3) = (   0.000000   0.000000   3.333333 )  

     reciprocal axes: (cart. coord. in units 2 pi/alat)
               b(1) = (  1.000000  0.577350  0.000000 )  
               b(2) = (  0.000000  1.154701  0.000000 )  
               b(3) = (  0.000000  0.000000  0.300000 )  


     PseudoPot. # 1 for Si read from file:
     /home/jesus/Documentos/Nanociencia_DFT/pseudopotenciales/Si.pbe-n-rrkjus_psl.1.0.0.UPF
     MD5 check sum: fa25574f73a70a4139f2adfbefec430c
     Pseudo is Ultrasoft + core correction, Zval =  4.0
     Generated using "atomic" code by A. Dal Corso v.6.3
     Using radial grid of 1141 points,  6 beta functions with: 
                l(1) =   0
                l(2) =   0
                l(3) =   1
                l(4) =   1
                l(5) =   2
                l(6) =   2
     Q(r) pseudized with 0 coefficients 


     atomic species   valence    mass     pseudopotential
        Si             4.00    28.08550     Si( 1.00)

      6 Sym. Ops. (no inversion) found



   Cartesian axes

     site n.     atom                  positions (alat units)
         1           Si  tau(   1) = (  -0.0000000   0.5773503   1.6395975  )
         2           Si  tau(   2) = (   0.5000000   0.2886751   1.7770225  )

     number of k points=    44  Methfessel-Paxton smearing, width (Ry)=  0.0100
                       cart. coord. in units 2pi/alat
        k(    1) = (   0.0000000   0.0000000   0.0000000), wk =   0.0058309
        k(    2) = (   0.0000000   0.0000000   0.0428571), wk =   0.0116618
        k(    3) = (   0.0000000   0.0000000   0.0857143), wk =   0.0116618
        k(    4) = (   0.0000000   0.0000000   0.1285714), wk =   0.0116618
        k(    5) = (   0.0000000   0.1649572   0.0000000), wk =   0.0349854
        k(    6) = (   0.0000000   0.1649572   0.0428571), wk =   0.0349854
        k(    7) = (   0.0000000   0.1649572   0.0857143), wk =   0.0349854
        k(    8) = (   0.0000000   0.1649572   0.1285714), wk =   0.0349854
        k(    9) = (   0.0000000   0.3299144   0.0000000), wk =   0.0349854
        k(   10) = (   0.0000000   0.3299144   0.0428571), wk =   0.0349854
        k(   11) = (   0.0000000   0.3299144   0.0857143), wk =   0.0349854
        k(   12) = (   0.0000000   0.3299144   0.1285714), wk =   0.0349854
        k(   13) = (   0.0000000   0.4948717   0.0000000), wk =   0.0349854
        k(   14) = (   0.0000000   0.4948717   0.0428571), wk =   0.0349854
        k(   15) = (   0.0000000   0.4948717   0.0857143), wk =   0.0349854
        k(   16) = (   0.0000000   0.4948717   0.1285714), wk =   0.0349854
        k(   17) = (   0.1428571   0.2474358   0.0000000), wk =   0.0349854
        k(   18) = (   0.1428571   0.2474358   0.0428571), wk =   0.0699708
        k(   19) = (   0.1428571   0.2474358   0.0857143), wk =   0.0699708
        k(   20) = (   0.1428571   0.2474358   0.1285714), wk =   0.0699708
        k(   21) = (   0.1428571   0.4123930   0.0000000), wk =   0.0699708
        k(   22) = (   0.1428571   0.4123930   0.0428571), wk =   0.0699708
        k(   23) = (   0.1428571   0.4123930   0.0857143), wk =   0.0699708
        k(   24) = (   0.1428571   0.4123930   0.1285714), wk =   0.0699708
        k(   25) = (   0.1428571   0.5773503   0.0000000), wk =   0.0349854
        k(   26) = (   0.1428571   0.5773503   0.0428571), wk =   0.0699708
        k(   27) = (   0.1428571   0.5773503   0.0857143), wk =   0.0699708
        k(   28) = (   0.1428571   0.5773503   0.1285714), wk =   0.0699708
        k(   29) = (   0.2857143   0.4948717   0.0000000), wk =   0.0349854
        k(   30) = (   0.2857143   0.4948717   0.0428571), wk =   0.0699708
        k(   31) = (   0.2857143   0.4948717   0.0857143), wk =   0.0699708
        k(   32) = (   0.2857143   0.4948717   0.1285714), wk =   0.0699708
        k(   33) = (   0.0000000  -0.1649572   0.0428571), wk =   0.0349854
        k(   34) = (   0.0000000  -0.1649572   0.0857143), wk =   0.0349854
        k(   35) = (   0.0000000  -0.1649572   0.1285714), wk =   0.0349854
        k(   36) = (   0.0000000  -0.3299144   0.0428571), wk =   0.0349854
        k(   37) = (   0.0000000  -0.3299144   0.0857143), wk =   0.0349854
        k(   38) = (   0.0000000  -0.3299144   0.1285714), wk =   0.0349854
        k(   39) = (   0.0000000  -0.4948717   0.0428571), wk =   0.0349854
        k(   40) = (   0.0000000  -0.4948717   0.0857143), wk =   0.0349854
        k(   41) = (   0.0000000  -0.4948717   0.1285714), wk =   0.0349854
        k(   42) = (  -0.1428571  -0.4123930   0.0428571), wk =   0.0699708
        k(   43) = (  -0.1428571  -0.4123930   0.0857143), wk =   0.0699708
        k(   44) = (  -0.1428571  -0.4123930   0.1285714), wk =   0.0699708

     Dense  grid:    57015 G-vectors     FFT dimensions: (  36,  36, 120)

     Smooth grid:    20149 G-vectors     FFT dimensions: (  24,  24,  80)

     Estimated max dynamical RAM per process >     216.33 MB

     Initial potential from superposition of free atoms

     starting charge    7.99888, renormalised to    8.00000

     negative rho (up, down):  2.328E-06 0.000E+00
     Starting wfcs are    8 randomized atomic wfcs

     total cpu time spent up to now is        1.9 secs

     Self-consistent Calculation

     iteration #  1     ecut=    30.00 Ry     beta= 0.70
     Davidson diagonalization with overlap
     ethr =  1.00E-02,  avg # of iterations =  4.9

     total cpu time spent up to now is        4.6 secs

     total energy              =     -22.69659254 Ry
     estimated scf accuracy    <       0.10474608 Ry

     iteration #  2     ecut=    30.00 Ry     beta= 0.70
     Davidson diagonalization with overlap
     ethr =  1.31E-03,  avg # of iterations =  2.7

     negative rho (up, down):  1.690E-07 0.000E+00

     total cpu time spent up to now is        6.8 secs

     total energy              =     -22.71092555 Ry
     estimated scf accuracy    <       0.00198348 Ry

     iteration #  3     ecut=    30.00 Ry     beta= 0.70
     Davidson diagonalization with overlap
     c_bands:  1 eigenvalues not converged
     ethr =  2.48E-05,  avg # of iterations =  9.4

     negative rho (up, down):  8.266E-07 0.000E+00

     total cpu time spent up to now is        9.9 secs

     total energy              =     -22.71115645 Ry
     estimated scf accuracy    <       0.00016662 Ry

     iteration #  4     ecut=    30.00 Ry     beta= 0.70
     Davidson diagonalization with overlap
     c_bands:  1 eigenvalues not converged
     ethr =  2.08E-06,  avg # of iterations =  6.8

     negative rho (up, down):  8.333E-07 0.000E+00

     total cpu time spent up to now is       12.4 secs

     total energy              =     -22.71117013 Ry
     estimated scf accuracy    <       0.00000762 Ry

     iteration #  5     ecut=    30.00 Ry     beta= 0.70
     Davidson diagonalization with overlap
     ethr =  9.52E-08,  avg # of iterations =  2.1

     negative rho (up, down):  8.352E-07 0.000E+00

     total cpu time spent up to now is       14.5 secs

     total energy              =     -22.71117181 Ry
     estimated scf accuracy    <       0.00000196 Ry

     iteration #  6     ecut=    30.00 Ry     beta= 0.70
     Davidson diagonalization with overlap
     ethr =  2.45E-08,  avg # of iterations =  2.1

     negative rho (up, down):  8.244E-07 0.000E+00

     total cpu time spent up to now is       16.5 secs

     End of self-consistent calculation

          k = 0.0000 0.0000 0.0000 (  2493 PWs)   bands (ev):

   -13.1852  -5.0355  -2.1110  -2.1110   0.9148   2.1615   2.1615   2.6915

          k = 0.0000 0.0000 0.0429 (  2499 PWs)   bands (ev):

   -13.1852  -5.0355  -2.1110  -2.1110   0.9218   2.1615   2.1615   2.6828

          k = 0.0000 0.0000 0.0857 (  2494 PWs)   bands (ev):

   -13.1852  -5.0355  -2.1110  -2.1110   0.9380   2.1615   2.1615   2.6465

          k = 0.0000 0.0000 0.1286 (  2494 PWs)   bands (ev):

   -13.1852  -5.0356  -2.1110  -2.1110   0.9516   2.1614   2.1614   2.5938

          k = 0.0000 0.1650 0.0000 (  2502 PWs)   bands (ev):

   -12.9044  -4.7844  -3.6296  -2.5907   1.1334   1.6640   3.1662   3.5523

          k = 0.0000 0.1650 0.0429 (  2496 PWs)   bands (ev):

   -12.9044  -4.7844  -3.6296  -2.5907   1.1391   1.6641   3.1662   3.3112

          k = 0.0000 0.1650 0.0857 (  2490 PWs)   bands (ev):

   -12.9044  -4.7844  -3.6296  -2.5907   1.1523   1.6648   3.0972   3.1662

          k = 0.0000 0.1650 0.1286 (  2502 PWs)   bands (ev):

   -12.9044  -4.7845  -3.6296  -2.5907   1.1633   1.6656   2.9805   3.1662

          k = 0.0000 0.3299 0.0000 (  2516 PWs)   bands (ev):

   -12.0801  -6.1713  -3.9365  -3.3278   0.7246   1.3080   3.0351   4.5081

          k = 0.0000 0.3299 0.0429 (  2518 PWs)   bands (ev):

   -12.0801  -6.1713  -3.9365  -3.3278   0.7246   1.3086   3.0572   4.2526

          k = 0.0000 0.3299 0.0857 (  2514 PWs)   bands (ev):

   -12.0801  -6.1713  -3.9365  -3.3278   0.7246   1.3108   3.0941   4.0264

          k = 0.0000 0.3299 0.1286 (  2514 PWs)   bands (ev):

   -12.0801  -6.1713  -3.9365  -3.3278   0.7247   1.3129   3.1192   5.3265

          k = 0.0000 0.4949 0.0000 (  2532 PWs)   bands (ev):

   -10.8476  -8.3264  -3.7623  -2.7790  -0.3283   0.3123   3.8408   5.8385

          k = 0.0000 0.4949 0.0429 (  2518 PWs)   bands (ev):

   -10.8476  -8.3264  -3.7623  -2.7790  -0.3283   0.3124   3.8513   5.8383

          k = 0.0000 0.4949 0.0857 (  2525 PWs)   bands (ev):

   -10.8476  -8.3264  -3.7623  -2.7791  -0.3283   0.3123   3.8682   5.4457

          k = 0.0000 0.4949 0.1286 (  2528 PWs)   bands (ev):

   -10.8476  -8.3264  -3.7623  -2.7791  -0.3283   0.3124   3.8791   5.8384

          k = 0.1429 0.2474 0.0000 (  2520 PWs)   bands (ev):

   -12.3506  -5.3039  -4.1708  -3.6831   1.3704   2.3278   3.1536   3.3894

          k = 0.1429 0.2474 0.0429 (  2517 PWs)   bands (ev):

   -12.3506  -5.3039  -4.1708  -3.6831   1.3729   2.3289   3.1533   3.4006

          k = 0.1429 0.2474 0.0857 (  2521 PWs)   bands (ev):

   -12.3506  -5.3039  -4.1709  -3.6831   1.3786   2.3314   3.1529   3.4377

          k = 0.1429 0.2474 0.1286 (  2504 PWs)   bands (ev):

   -12.3506  -5.3039  -4.1709  -3.6831   1.3832   2.3335   3.1524   3.5076

          k = 0.1429 0.4124 0.0000 (  2525 PWs)   bands (ev):

   -11.2892  -7.3381  -4.6574  -3.1765   0.4781   2.0561   3.4642   4.2728

          k = 0.1429 0.4124 0.0429 (  2526 PWs)   bands (ev):

   -11.2892  -7.3381  -4.6574  -3.1765   0.4781   2.0561   3.4783   4.2578

          k = 0.1429 0.4124 0.0857 (  2538 PWs)   bands (ev):

   -11.2892  -7.3381  -4.6575  -3.1766   0.4781   2.0561   3.5013   4.2510

          k = 0.1429 0.4124 0.1286 (  2538 PWs)   bands (ev):

   -11.2892  -7.3381  -4.6575  -3.1766   0.4782   2.0562   3.5158   4.2610

          k = 0.1429 0.5774 0.0000 (  2532 PWs)   bands (ev):

   -10.2434  -8.7861  -4.9661  -2.2050  -0.7356   1.8252   3.7256   4.9821

          k = 0.1429 0.5774 0.0429 (  2538 PWs)   bands (ev):

   -10.2434  -8.7861  -4.9661  -2.2050  -0.7356   1.8252   3.7256   4.9876

          k = 0.1429 0.5774 0.0857 (  2540 PWs)   bands (ev):

   -10.2434  -8.7861  -4.9661  -2.2050  -0.7356   1.8252   3.7257   5.0007

          k = 0.1429 0.5774 0.1286 (  2535 PWs)   bands (ev):

   -10.2434  -8.7861  -4.9661  -2.2050  -0.7357   1.8252   3.7258   5.0112

          k = 0.2857 0.4949 0.0000 (  2534 PWs)   bands (ev):

   -10.0811  -8.5287  -6.0035  -2.0327  -0.5896   2.8047   4.3211   5.3541

          k = 0.2857 0.4949 0.0429 (  2538 PWs)   bands (ev):

   -10.0811  -8.5287  -6.0035  -2.0327  -0.5896   2.8046   4.3208   4.8246

          k = 0.2857 0.4949 0.0857 (  2532 PWs)   bands (ev):

   -10.0811  -8.5287  -6.0035  -2.0327  -0.5896   2.8043   4.3209   4.8425

          k = 0.2857 0.4949 0.1286 (  2534 PWs)   bands (ev):

   -10.0811  -8.5287  -6.0035  -2.0327  -0.5896   2.8041   4.3210   4.8577

          k = 0.0000-0.1650 0.0429 (  2496 PWs)   bands (ev):

   -12.9044  -4.7844  -3.6296  -2.5907   1.1391   1.6645   3.1662   3.2811

          k = 0.0000-0.1650 0.0857 (  2490 PWs)   bands (ev):

   -12.9044  -4.7844  -3.6296  -2.5907   1.1524   1.6653   3.0811   3.1662

          k = 0.0000-0.1650 0.1286 (  2502 PWs)   bands (ev):

   -12.9044  -4.7845  -3.6296  -2.5907   1.1634   1.6658   2.9754   3.1662

          k = 0.0000-0.3299 0.0429 (  2518 PWs)   bands (ev):

   -12.0801  -6.1713  -3.9365  -3.3279   0.7246   1.3094   3.0390   4.3691

          k = 0.0000-0.3299 0.0857 (  2514 PWs)   bands (ev):

   -12.0801  -6.1713  -3.9365  -3.3278   0.7247   1.3117   3.0677   4.1152

          k = 0.0000-0.3299 0.1286 (  2514 PWs)   bands (ev):

   -12.0801  -6.1713  -3.9365  -3.3278   0.7247   1.3133   3.1051   3.9481

          k = 0.0000-0.4949 0.0429 (  2518 PWs)   bands (ev):

   -10.8476  -8.3264  -3.7623  -2.7790  -0.3283   0.3123   3.8441   5.8389

          k = 0.0000-0.4949 0.0857 (  2525 PWs)   bands (ev):

   -10.8476  -8.3264  -3.7623  -2.7791  -0.3283   0.3123   3.8589   5.8386

          k = 0.0000-0.4949 0.1286 (  2528 PWs)   bands (ev):

   -10.8476  -8.3264  -3.7623  -2.7791  -0.3283   0.3123   3.8747   5.8388

          k =-0.1429-0.4124 0.0429 (  2526 PWs)   bands (ev):

   -11.2892  -7.3381  -4.6574  -3.1765   0.4782   2.0561   3.4681   4.2877

          k =-0.1429-0.4124 0.0857 (  2538 PWs)   bands (ev):

   -11.2892  -7.3381  -4.6575  -3.1766   0.4782   2.0562   3.4873   4.2930

          k =-0.1429-0.4124 0.1286 (  2538 PWs)   bands (ev):

   -11.2892  -7.3381  -4.6575  -3.1766   0.4783   2.0562   3.5089   4.2814

     the Fermi energy is    -0.8434 ev

!    total energy              =     -22.71117223 Ry
     estimated scf accuracy    <       0.00000003 Ry
     smearing contrib. (-TS)   =       0.00011038 Ry
     internal energy E=F+TS    =     -22.71128261 Ry

     The total energy is F=E-TS. E is the sum of the following terms:
     one-electron contribution =     -43.74366894 Ry
     hartree contribution      =      23.34962465 Ry
     xc contribution           =     -12.35749356 Ry
     ewald contribution        =      10.04025523 Ry

     convergence has been achieved in   6 iterations

     negative rho (up, down):  8.244E-07 0.000E+00

     Forces acting on atoms (cartesian axes, Ry/au):

     atom    1 type  1   force =     0.00000000    0.00000000   -0.03310856
     atom    2 type  1   force =     0.00000000    0.00000000    0.03310856

     Total force =     0.046823     Total SCF correction =     0.000061

     BFGS Geometry Optimization

     number of scf cycles    =   1
     number of bfgs steps    =   0

     energy   new            =     -22.7111722259 Ry

     new trust radius        =       0.0331085559 bohr

     The maximum number of steps has been reached.

     End of BFGS Geometry Optimization

ATOMIC_POSITIONS (crystal)
Si            0.3333333300        0.6666666700        0.4904192236
Si            0.6666666700        0.3333333300        0.5345667884



     Writing output data file /home/jesus/Documentos/Nanociencia_DFT/test.save/
     NEW-OLD atomic charge density approx. for the potential

     negative rho (up, down):  8.302E-07 0.000E+00

     Writing output data file /home/jesus/Documentos/Nanociencia_DFT/test.save/
 
     init_run     :      1.09s CPU      1.24s WALL (       1 calls)
     electrons    :     13.67s CPU     14.61s WALL (       1 calls)
     update_pot   :      0.14s CPU      0.14s WALL (       1 calls)
     forces       :      0.39s CPU      0.48s WALL (       1 calls)

     Called by init_run:
     wfcinit      :      0.50s CPU      0.51s WALL (       1 calls)
     potinit      :      0.10s CPU      0.12s WALL (       1 calls)
     hinit0       :      0.29s CPU      0.31s WALL (       1 calls)

     Called by electrons:
     c_bands      :     10.21s CPU     10.25s WALL (       6 calls)
     sum_band     :      2.26s CPU      2.69s WALL (       6 calls)
     v_of_rho     :      0.53s CPU      0.57s WALL (       8 calls)
     newd         :      1.02s CPU      1.61s WALL (       8 calls)
     mix_rho      :      0.04s CPU      0.04s WALL (       6 calls)

     Called by c_bands:
     init_us_2    :      0.45s CPU      0.45s WALL (     616 calls)
     cegterg      :      8.22s CPU      8.26s WALL (     264 calls)

     Called by *egterg:
     cdiaghg      :      0.17s CPU      0.17s WALL (    1494 calls)
     h_psi        :      7.39s CPU      7.42s WALL (    1538 calls)
     s_psi        :      0.27s CPU      0.27s WALL (    1538 calls)
     g_psi        :      0.04s CPU      0.04s WALL (    1230 calls)

     Called by h_psi:
     h_psi:calbec :      0.36s CPU      0.36s WALL (    1538 calls)
     vloc_psi     :      6.68s CPU      6.70s WALL (    1538 calls)
     add_vuspsi   :      0.31s CPU      0.31s WALL (    1538 calls)

     General routines
     calbec       :      0.49s CPU      0.49s WALL (    1978 calls)
     fft          :      0.22s CPU      0.24s WALL (     114 calls)
     ffts         :      0.01s CPU      0.01s WALL (      14 calls)
     fftw         :      6.82s CPU      6.86s WALL (   15568 calls)
     interpolate  :      0.02s CPU      0.02s WALL (       8 calls)
     davcio       :      0.00s CPU      0.00s WALL (      44 calls)
 
     Parallel routines
 
     PWSCF        :     16.10s CPU     17.35s WALL

 
   This run was terminated on:  11: 1:19  17Mar2021            

=------------------------------------------------------------------------------=
   JOB DONE.
=------------------------------------------------------------------------------=
