
     Program PWSCF v.6.6 starts on  2Apr2021 at 15:50:20 

     This program is part of the open-source Quantum ESPRESSO suite
     for quantum simulation of materials; please cite
         "P. Giannozzi et al., J. Phys.:Condens. Matter 21 395502 (2009);
         "P. Giannozzi et al., J. Phys.:Condens. Matter 29 465901 (2017);
          URL http://www.quantum-espresso.org", 
     in publications or presentations arising from this work. More details at
     http://www.quantum-espresso.org/quote

     Parallel version (MPI), running on     1 processors

     MPI processes distributed on     1 nodes
     Fft bands division:     nmany     =       1
     Waiting for input...
     Reading input from standard input
Warning: card &CELL ignored
Warning: card   CELL_DYNAMICS='BFGS', ignored
Warning: card   CELL_DOFREE='ALL', ignored
Warning: card / ignored

     Current dimensions of program PWSCF are:
     Max number of different atomic species (ntypx) = 10
     Max number of k-points (npk) =  40000
     Max angular momentum in pseudopotentials (lmaxx) =  3

     File /home/jesus/Documentos/Nanociencia_DFT/test.update deleted, as requested

     File /home/jesus/Documentos/Nanociencia_DFT/test.bfgs deleted, as requested

     Subspace diagonalization in iterative solution of the eigenvalue problem:
     a serial algorithm will be used

 
     G-vector sticks info
     --------------------
     sticks:   dense  smooth     PW     G-vecs:    dense   smooth      PW
     Sum         847     433    121                63873    22675    3655
 


     bravais-lattice index     =            4
     lattice parameter (alat)  =       7.1999  a.u.
     unit-cell volume          =    1018.0250 (a.u.)^3
     number of atoms/cell      =            2
     number of atomic types    =            1
     number of electrons       =         8.00
     number of Kohn-Sham states=            8
     kinetic-energy cutoff     =      30.0000  Ry
     charge density cutoff     =     240.0000  Ry
     convergence threshold     =      1.0E-06
     mixing beta               =       0.7000
     number of iterations used =            8  plain     mixing
     Exchange-correlation= PBE
                           (   1   4   3   4   0   0   0)
     nstep                     =            1


     celldm(1)=   7.199857  celldm(2)=   0.000000  celldm(3)=   3.149606
     celldm(4)=   0.000000  celldm(5)=   0.000000  celldm(6)=   0.000000

     crystal axes: (cart. coord. in units of alat)
               a(1) = (   1.000000   0.000000   0.000000 )  
               a(2) = (  -0.500000   0.866025   0.000000 )  
               a(3) = (   0.000000   0.000000   3.149606 )  

     reciprocal axes: (cart. coord. in units 2 pi/alat)
               b(1) = (  1.000000  0.577350  0.000000 )  
               b(2) = (  0.000000  1.154701  0.000000 )  
               b(3) = (  0.000000  0.000000  0.317500 )  


     PseudoPot. # 1 for Si read from file:
     /home/jesus/Documentos/Nanociencia_DFT/pseudopotenciales/Si.pbe-n-rrkjus_psl.1.0.0.UPF
     MD5 check sum: fa25574f73a70a4139f2adfbefec430c
     Pseudo is Ultrasoft + core correction, Zval =  4.0
     Generated using "atomic" code by A. Dal Corso v.6.3
     Using radial grid of 1141 points,  6 beta functions with: 
                l(1) =   0
                l(2) =   0
                l(3) =   1
                l(4) =   1
                l(5) =   2
                l(6) =   2
     Q(r) pseudized with 0 coefficients 


     atomic species   valence    mass     pseudopotential
        Si             4.00    28.08550     Si( 1.00)

      6 Sym. Ops. (no inversion) found



   Cartesian axes

     site n.     atom                  positions (alat units)
         1           Si  tau(   1) = (  -0.0000000   0.5773503   1.5492260  )
         2           Si  tau(   2) = (   0.5000000   0.2886751   1.6790764  )

     number of k points=     8  Methfessel-Paxton smearing, width (Ry)=  0.0100
                       cart. coord. in units 2pi/alat
        k(    1) = (   0.0000000   0.0000000   0.0000000), wk =   0.0408163
        k(    2) = (   0.0000000   0.1649572   0.0000000), wk =   0.2448980
        k(    3) = (   0.0000000   0.3299144   0.0000000), wk =   0.2448980
        k(    4) = (   0.0000000   0.4948717   0.0000000), wk =   0.2448980
        k(    5) = (   0.1428571   0.2474358   0.0000000), wk =   0.2448980
        k(    6) = (   0.1428571   0.4123930   0.0000000), wk =   0.4897959
        k(    7) = (   0.1428571   0.5773503   0.0000000), wk =   0.2448980
        k(    8) = (   0.2857143   0.4948717   0.0000000), wk =   0.2448980

     Dense  grid:    63873 G-vectors     FFT dimensions: (  36,  36, 120)

     Smooth grid:    22675 G-vectors     FFT dimensions: (  25,  25,  80)

     Estimated max dynamical RAM per process >     228.50 MB

     Initial potential from superposition of free atoms

     starting charge    7.99888, renormalised to    8.00000

     negative rho (up, down):  2.446E-06 0.000E+00
     Starting wfcs are    8 randomized atomic wfcs

     total cpu time spent up to now is        1.5 secs

     Self-consistent Calculation

     iteration #  1     ecut=    30.00 Ry     beta= 0.70
     Davidson diagonalization with overlap
     ethr =  1.00E-02,  avg # of iterations =  4.2

     Threshold (ethr) on eigenvalues was too large:
     Diagonalizing with lowered threshold

     Davidson diagonalization with overlap
     ethr =  8.38E-04,  avg # of iterations =  1.8

     negative rho (up, down):  9.250E-07 0.000E+00

     total cpu time spent up to now is        3.1 secs

     total energy              =     -22.73614726 Ry
     estimated scf accuracy    <       0.07327913 Ry

     iteration #  2     ecut=    30.00 Ry     beta= 0.70
     Davidson diagonalization with overlap
     ethr =  9.16E-04,  avg # of iterations =  2.5

     negative rho (up, down):  1.321E-06 0.000E+00

     total cpu time spent up to now is        4.0 secs

     total energy              =     -22.74434985 Ry
     estimated scf accuracy    <       0.00193218 Ry

     iteration #  3     ecut=    30.00 Ry     beta= 0.70
     Davidson diagonalization with overlap
     ethr =  2.42E-05,  avg # of iterations =  6.5

     negative rho (up, down):  1.824E-06 0.000E+00

     total cpu time spent up to now is        5.1 secs

     total energy              =     -22.74457290 Ry
     estimated scf accuracy    <       0.00013032 Ry

     iteration #  4     ecut=    30.00 Ry     beta= 0.70
     Davidson diagonalization with overlap
     ethr =  1.63E-06,  avg # of iterations =  3.8

     negative rho (up, down):  1.811E-06 0.000E+00

     total cpu time spent up to now is        6.1 secs

     total energy              =     -22.74458375 Ry
     estimated scf accuracy    <       0.00000860 Ry

     iteration #  5     ecut=    30.00 Ry     beta= 0.70
     Davidson diagonalization with overlap
     ethr =  1.08E-07,  avg # of iterations =  2.0

     negative rho (up, down):  1.807E-06 0.000E+00

     total cpu time spent up to now is        7.0 secs

     total energy              =     -22.74458590 Ry
     estimated scf accuracy    <       0.00000210 Ry

     iteration #  6     ecut=    30.00 Ry     beta= 0.70
     Davidson diagonalization with overlap
     ethr =  2.63E-08,  avg # of iterations =  1.5

     negative rho (up, down):  1.812E-06 0.000E+00

     total cpu time spent up to now is        7.9 secs

     End of self-consistent calculation

          k = 0.0000 0.0000 0.0000 (  2823 PWs)   bands (ev):

   -12.8524  -4.9429  -2.7666  -2.7666   0.6829   0.7658   1.4655   1.4655

          k = 0.0000 0.1650 0.0000 (  2839 PWs)   bands (ev):

   -12.6068  -4.8253  -4.1378  -3.1598   0.7707   0.9407   2.3252   2.4377

          k = 0.0000 0.3299 0.0000 (  2825 PWs)   bands (ev):

   -11.8888  -6.5834  -3.9416  -3.7885  -0.0117   0.7790   2.6631   4.2250

          k = 0.0000 0.4949 0.0000 (  2835 PWs)   bands (ev):

   -10.8402  -8.4563  -4.1670  -2.9785  -0.7580  -0.3017   3.4690   5.0383

          k = 0.1429 0.2474 0.0000 (  2818 PWs)   bands (ev):

   -12.1234  -5.8639  -4.1358  -4.0423   0.9071   1.6276   1.8900   2.8581

          k = 0.1429 0.4124 0.0000 (  2824 PWs)   bands (ev):

   -11.2046  -7.6664  -4.8793  -3.2849  -0.0799   1.2134   3.1341   3.6521

          k = 0.1429 0.5774 0.0000 (  2832 PWs)   bands (ev):

   -10.3390  -8.8833  -5.1571  -2.4839  -1.0842   0.9893   3.2748   4.4642

          k = 0.2857 0.4949 0.0000 (  2812 PWs)   bands (ev):

   -10.1663  -8.7946  -5.9571  -2.3044  -1.0457   2.5201   3.4721   4.0093

     the Fermi energy is    -1.1847 ev

!    total energy              =     -22.74458629 Ry
     estimated scf accuracy    <       0.00000005 Ry
     smearing contrib. (-TS)   =       0.00015105 Ry
     internal energy E=F+TS    =     -22.74473734 Ry

     The total energy is F=E-TS. E is the sum of the following terms:
     one-electron contribution =     -38.96913475 Ry
     hartree contribution      =      20.80292063 Ry
     xc contribution           =     -12.17905518 Ry
     ewald contribution        =       7.60053196 Ry

     convergence has been achieved in   6 iterations

     negative rho (up, down):  1.812E-06 0.000E+00

     Forces acting on atoms (cartesian axes, Ry/au):

     atom    1 type  1   force =     0.00000000    0.00000000   -0.00140883
     atom    2 type  1   force =     0.00000000    0.00000000    0.00140883

     Total force =     0.001992     Total SCF correction =     0.000109

     BFGS Geometry Optimization

     number of scf cycles    =   1
     number of bfgs steps    =   0

     energy   new            =     -22.7445862893 Ry

     new trust radius        =       0.0014088255 bohr

     The maximum number of steps has been reached.

     End of BFGS Geometry Optimization

ATOMIC_POSITIONS (crystal)
Si            0.3333333300        0.6666666700        0.4918171215
Si            0.6666666700        0.3333333300        0.5331688905



     Writing output data file /home/jesus/Documentos/Nanociencia_DFT/test.save/
     NEW-OLD atomic charge density approx. for the potential

     negative rho (up, down):  1.812E-06 0.000E+00

     Writing output data file /home/jesus/Documentos/Nanociencia_DFT/test.save/
 
     init_run     :      0.64s CPU      0.80s WALL (       1 calls)
     electrons    :      5.27s CPU      6.38s WALL (       1 calls)
     update_pot   :      0.15s CPU      0.15s WALL (       1 calls)
     forces       :      0.35s CPU      0.44s WALL (       1 calls)

     Called by init_run:
     wfcinit      :      0.10s CPU      0.11s WALL (       1 calls)
     potinit      :      0.10s CPU      0.12s WALL (       1 calls)
     hinit0       :      0.28s CPU      0.31s WALL (       1 calls)

     Called by electrons:
     c_bands      :      2.26s CPU      2.30s WALL (       7 calls)
     sum_band     :      1.65s CPU      2.21s WALL (       7 calls)
     v_of_rho     :      0.57s CPU      0.60s WALL (       8 calls)
     newd         :      1.12s CPU      1.78s WALL (       8 calls)
     mix_rho      :      0.04s CPU      0.05s WALL (       7 calls)

     Called by c_bands:
     init_us_2    :      0.11s CPU      0.12s WALL (     128 calls)
     cegterg      :      1.75s CPU      1.79s WALL (      56 calls)

     Called by *egterg:
     cdiaghg      :      0.03s CPU      0.03s WALL (     226 calls)
     h_psi        :      1.58s CPU      1.62s WALL (     242 calls)
     s_psi        :      0.06s CPU      0.06s WALL (     242 calls)
     g_psi        :      0.01s CPU      0.01s WALL (     178 calls)

     Called by h_psi:
     h_psi:calbec :      0.08s CPU      0.08s WALL (     242 calls)
     vloc_psi     :      1.42s CPU      1.46s WALL (     242 calls)
     add_vuspsi   :      0.07s CPU      0.07s WALL (     242 calls)

     General routines
     calbec       :      0.11s CPU      0.11s WALL (     330 calls)
     fft          :      0.23s CPU      0.26s WALL (     115 calls)
     ffts         :      0.01s CPU      0.01s WALL (      15 calls)
     fftw         :      1.49s CPU      1.52s WALL (    2962 calls)
     interpolate  :      0.03s CPU      0.03s WALL (       8 calls)
     davcio       :      0.00s CPU      0.00s WALL (       8 calls)
 
     Parallel routines
 
     PWSCF        :      7.24s CPU      8.70s WALL

 
   This run was terminated on:  15:50:29   2Apr2021            

=------------------------------------------------------------------------------=
   JOB DONE.
=------------------------------------------------------------------------------=
