
     Program BANDS v.6.6 starts on 31Mar2021 at 21:20:35 

     This program is part of the open-source Quantum ESPRESSO suite
     for quantum simulation of materials; please cite
         "P. Giannozzi et al., J. Phys.:Condens. Matter 21 395502 (2009);
         "P. Giannozzi et al., J. Phys.:Condens. Matter 29 465901 (2017);
          URL http://www.quantum-espresso.org", 
     in publications or presentations arising from this work. More details at
     http://www.quantum-espresso.org/quote

     Parallel version (MPI), running on     1 processors

     MPI processes distributed on     1 nodes
     Fft bands division:     nmany     =       1

     Reading xml data from directory:

     /home/jesus/Documentos/Nanociencia_DFT/silicano.save/
     file H.pbe-kjpaw_psl.1.0.0.UPF: wavefunction(s)  1S renormalized

     IMPORTANT: XC functional enforced from input :
     Exchange-correlation= PBE
                           (   1   4   3   4   0   0   0)
     Any further DFT definition will be discarded
     Please, verify this is what you really want

 
     G-vector sticks info
     --------------------
     sticks:   dense  smooth     PW     G-vecs:    dense   smooth      PW
     Sum         769     517    151                91447    49847    7931
 

     negative rho (up, down):  1.025E-04 0.000E+00
     Reading collected, re-writing distributed wavefunctions
     high-symmetry point:  0.0000 0.0000 0.0000   x coordinate   0.0000
     high-symmetry point:  0.5000 0.2887 0.0000   x coordinate   0.5774
     high-symmetry point:  0.0000 0.3849 0.0000   x coordinate   1.0865
     high-symmetry point:  0.0000 0.0000 0.0972   x coordinate   1.4835

     Plottable bands (eV) written to file silicano_bands.gnu
     Bands written to file silicano_bands

 **************************************************************************

                    xk=(   0.00000,   0.00000,   0.00000  )

     point group C_s (m)    
     there are  2 classes
     the character table:

       E     s    
A'     1.00  1.00
A''    1.00 -1.00

     the symmetry operations in each class and the name of the first element:

     E        1
                                                                 
     s        2
                                                                 

     Band symmetry, C_s (m)     point group:

     e(  1 -  1) =    -13.67833  eV     1   --> A'             
     e(  2 -  2) =     -9.13491  eV     1   --> A'             
     e(  3 -  3) =     -5.88174  eV     1   --> A'             
     e(  4 -  4) =     -3.41142  eV     1   --> A'             
     e(  5 -  5) =     -3.40327  eV     1   --> A''            
     e(  6 -  6) =     -1.10118  eV     1   --> A'             
     e(  7 -  7) =      0.50814  eV     1   --> A''            
     e(  8 -  8) =      0.51717  eV     1   --> A'             
     e(  9 -  9) =      0.76566  eV     1   --> A'             
     e( 10 - 10) =      1.20439  eV     1   --> A'             

 **************************************************************************

 **************************************************************************

                    xk=(   0.01667,   0.00962,   0.00000  )

     point group C_1 (1)    
     there are  1 classes
     the character table:

       E    
A      1.00

     the symmetry operations in each class and the name of the first element:

     E        1
                                                                 

     Band symmetry, C_1 (1)     point group:

     e(  1 -  1) =    -13.67531  eV     1   --> A              
     e(  2 -  2) =     -9.13408  eV     1   --> A              
     e(  3 -  3) =     -5.88161  eV     1   --> A              
     e(  4 -  4) =     -3.43732  eV     1   --> A              
     e(  5 -  5) =     -3.41524  eV     1   --> A              
     e(  6 -  6) =     -1.07466  eV     1   --> A              
     e(  7 -  7) =      0.50513  eV     1   --> A              
     e(  8 -  8) =      0.52746  eV     1   --> A              
     e(  9 -  9) =      0.76974  eV     1   --> A              
     e( 10 - 10) =      1.20877  eV     1   --> A              

 **************************************************************************

 **************************************************************************

                    xk=(   0.03333,   0.01925,   0.00000  )

     Band symmetry, C_1 (1)     point group:

     e(  1 -  1) =    -13.66626  eV     1   --> A              
     e(  2 -  2) =     -9.13158  eV     1   --> A              
     e(  3 -  3) =     -5.88130  eV     1   --> A              
     e(  4 -  4) =     -3.52639  eV     1   --> A              
     e(  5 -  5) =     -3.43470  eV     1   --> A              
     e(  6 -  6) =     -1.00083  eV     1   --> A              
     e(  7 -  7) =      0.49321  eV     1   --> A              
     e(  8 -  8) =      0.56219  eV     1   --> A              
     e(  9 -  9) =      0.78233  eV     1   --> A              
     e( 10 - 10) =      1.22162  eV     1   --> A              

 **************************************************************************

 **************************************************************************

                    xk=(   0.05000,   0.02887,   0.00000  )

     Band symmetry, C_1 (1)     point group:

     e(  1 -  1) =    -13.65120  eV     1   --> A              
     e(  2 -  2) =     -9.12756  eV     1   --> A              
     e(  3 -  3) =     -5.88098  eV     1   --> A              
     e(  4 -  4) =     -3.66239  eV     1   --> A              
     e(  5 -  5) =     -3.46562  eV     1   --> A              
     e(  6 -  6) =     -0.89429  eV     1   --> A              
     e(  7 -  7) =      0.47701  eV     1   --> A              
     e(  8 -  8) =      0.61980  eV     1   --> A              
     e(  9 -  9) =      0.80430  eV     1   --> A              
     e( 10 - 10) =      1.24215  eV     1   --> A              

 **************************************************************************

 **************************************************************************

                    xk=(   0.06667,   0.03849,   0.00000  )

     Band symmetry, C_1 (1)     point group:

     e(  1 -  1) =    -13.63013  eV     1   --> A              
     e(  2 -  2) =     -9.12216  eV     1   --> A              
     e(  3 -  3) =     -5.88064  eV     1   --> A              
     e(  4 -  4) =     -3.83208  eV     1   --> A              
     e(  5 -  5) =     -3.50714  eV     1   --> A              
     e(  6 -  6) =     -0.77359  eV     1   --> A              
     e(  7 -  7) =      0.46350  eV     1   --> A              
     e(  8 -  8) =      0.69865  eV     1   --> A              
     e(  9 -  9) =      0.83685  eV     1   --> A              
     e( 10 - 10) =      1.26953  eV     1   --> A              

 **************************************************************************

 **************************************************************************

                    xk=(   0.08333,   0.04811,   0.00000  )

     Band symmetry, C_1 (1)     point group:

     e(  1 -  1) =    -13.60309  eV     1   --> A              
     e(  2 -  2) =     -9.11563  eV     1   --> A              
     e(  3 -  3) =     -5.88039  eV     1   --> A              
     e(  4 -  4) =     -4.02441  eV     1   --> A              
     e(  5 -  5) =     -3.55786  eV     1   --> A              
     e(  6 -  6) =     -0.65829  eV     1   --> A              
     e(  7 -  7) =      0.46177  eV     1   --> A              
     e(  8 -  8) =      0.79701  eV     1   --> A              
     e(  9 -  9) =      0.88156  eV     1   --> A              
     e( 10 - 10) =      1.30316  eV     1   --> A              

 **************************************************************************

 **************************************************************************

                    xk=(   0.10000,   0.05774,   0.00000  )

     Band symmetry, C_1 (1)     point group:

     e(  1 -  1) =    -13.57010  eV     1   --> A              
     e(  2 -  2) =     -9.10826  eV     1   --> A              
     e(  3 -  3) =     -5.88043  eV     1   --> A              
     e(  4 -  4) =     -4.23102  eV     1   --> A              
     e(  5 -  5) =     -3.61620  eV     1   --> A              
     e(  6 -  6) =     -0.56678  eV     1   --> A              
     e(  7 -  7) =      0.48124  eV     1   --> A              
     e(  8 -  8) =      0.91292  eV     1   --> A              
     e(  9 -  9) =      0.94036  eV     1   --> A              
     e( 10 - 10) =      1.34294  eV     1   --> A              

 **************************************************************************

 **************************************************************************

                    xk=(   0.11667,   0.06736,   0.00000  )

     Band symmetry, C_1 (1)     point group:

     e(  1 -  1) =    -13.53123  eV     1   --> A              
     e(  2 -  2) =     -9.10055  eV     1   --> A              
     e(  3 -  3) =     -5.88110  eV     1   --> A              
     e(  4 -  4) =     -4.44576  eV     1   --> A              
     e(  5 -  5) =     -3.68059  eV     1   --> A              
     e(  6 -  6) =     -0.51192  eV     1   --> A              
     e(  7 -  7) =      0.52669  eV     1   --> A              
     e(  8 -  8) =      1.01496  eV     1   --> A              
     e(  9 -  9) =      1.04433  eV     1   --> A              
     e( 10 - 10) =      1.38955  eV     1   --> A              

 **************************************************************************

 **************************************************************************

                    xk=(   0.13333,   0.07698,   0.00000  )

     Band symmetry, C_1 (1)     point group:

     e(  1 -  1) =    -13.48649  eV     1   --> A              
     e(  2 -  2) =     -9.09299  eV     1   --> A              
     e(  3 -  3) =     -5.88250  eV     1   --> A              
     e(  4 -  4) =     -4.66403  eV     1   --> A              
     e(  5 -  5) =     -3.74949  eV     1   --> A              
     e(  6 -  6) =     -0.49596  eV     1   --> A              
     e(  7 -  7) =      0.59371  eV     1   --> A              
     e(  8 -  8) =      1.10475  eV     1   --> A              
     e(  9 -  9) =      1.18904  eV     1   --> A              
     e( 10 - 10) =      1.44526  eV     1   --> A              

 **************************************************************************

 **************************************************************************

                    xk=(   0.15000,   0.08661,   0.00000  )

     Band symmetry, C_1 (1)     point group:

     e(  1 -  1) =    -13.43599  eV     1   --> A              
     e(  2 -  2) =     -9.08631  eV     1   --> A              
     e(  3 -  3) =     -5.88525  eV     1   --> A              
     e(  4 -  4) =     -4.88213  eV     1   --> A              
     e(  5 -  5) =     -3.82150  eV     1   --> A              
     e(  6 -  6) =     -0.51179  eV     1   --> A              
     e(  7 -  7) =      0.67151  eV     1   --> A              
     e(  8 -  8) =      1.20266  eV     1   --> A              
     e(  9 -  9) =      1.34482  eV     1   --> A              
     e( 10 - 10) =      1.51520  eV     1   --> A              

 **************************************************************************

 **************************************************************************

                    xk=(   0.16667,   0.09623,   0.00000  )

     Band symmetry, C_1 (1)     point group:

     e(  1 -  1) =    -13.37976  eV     1   --> A              
     e(  2 -  2) =     -9.08114  eV     1   --> A              
     e(  3 -  3) =     -5.88996  eV     1   --> A              
     e(  4 -  4) =     -5.09676  eV     1   --> A              
     e(  5 -  5) =     -3.89538  eV     1   --> A              
     e(  6 -  6) =     -0.54931  eV     1   --> A              
     e(  7 -  7) =      0.75083  eV     1   --> A              
     e(  8 -  8) =      1.29328  eV     1   --> A              
     e(  9 -  9) =      1.50928  eV     1   --> A              
     e( 10 - 10) =      1.60713  eV     1   --> A              

 **************************************************************************

 **************************************************************************

                    xk=(   0.18333,   0.10585,   0.00000  )

     Band symmetry, C_1 (1)     point group:

     e(  1 -  1) =    -13.31792  eV     1   --> A              
     e(  2 -  2) =     -9.07851  eV     1   --> A              
     e(  3 -  3) =     -5.89800  eV     1   --> A              
     e(  4 -  4) =     -5.30433  eV     1   --> A              
     e(  5 -  5) =     -3.97001  eV     1   --> A              
     e(  6 -  6) =     -0.59995  eV     1   --> A              
     e(  7 -  7) =      0.82718  eV     1   --> A              
     e(  8 -  8) =      1.36130  eV     1   --> A              
     e(  9 -  9) =      1.67981  eV     1   --> A              
     e( 10 - 10) =      1.72329  eV     1   --> A              

 **************************************************************************

 **************************************************************************

                    xk=(   0.20000,   0.11547,   0.00000  )

     Band symmetry, C_1 (1)     point group:

     e(  1 -  1) =    -13.25057  eV     1   --> A              
     e(  2 -  2) =     -9.07959  eV     1   --> A              
     e(  3 -  3) =     -5.91282  eV     1   --> A              
     e(  4 -  4) =     -5.49956  eV     1   --> A              
     e(  5 -  5) =     -4.04445  eV     1   --> A              
     e(  6 -  6) =     -0.65761  eV     1   --> A              
     e(  7 -  7) =      0.89932  eV     1   --> A              
     e(  8 -  8) =      1.40159  eV     1   --> A              
     e(  9 -  9) =      1.85086  eV     1   --> A              
     e( 10 - 10) =      1.85512  eV     1   --> A              

 **************************************************************************

 **************************************************************************

                    xk=(   0.21667,   0.12510,   0.00000  )

     Band symmetry, C_1 (1)     point group:

     e(  1 -  1) =    -13.17785  eV     1   --> A              
     e(  2 -  2) =     -9.08559  eV     1   --> A              
     e(  3 -  3) =     -5.94428  eV     1   --> A              
     e(  4 -  4) =     -5.67054  eV     1   --> A              
     e(  5 -  5) =     -4.11786  eV     1   --> A              
     e(  6 -  6) =     -0.71818  eV     1   --> A              
     e(  7 -  7) =      0.96704  eV     1   --> A              
     e(  8 -  8) =      1.41412  eV     1   --> A              
     e(  9 -  9) =      1.97648  eV     1   --> A              
     e( 10 - 10) =      2.02731  eV     1   --> A              

 **************************************************************************

 **************************************************************************

                    xk=(   0.23333,   0.13472,   0.00000  )

     Band symmetry, C_1 (1)     point group:

     e(  1 -  1) =    -13.09991  eV     1   --> A              
     e(  2 -  2) =     -9.09798  eV     1   --> A              
     e(  3 -  3) =     -6.01888  eV     1   --> A              
     e(  4 -  4) =     -5.78895  eV     1   --> A              
     e(  5 -  5) =     -4.18957  eV     1   --> A              
     e(  6 -  6) =     -0.77889  eV     1   --> A              
     e(  7 -  7) =      1.02973  eV     1   --> A              
     e(  8 -  8) =      1.39857  eV     1   --> A              
     e(  9 -  9) =      2.07680  eV     1   --> A              
     e( 10 - 10) =      2.19669  eV     1   --> A              

 **************************************************************************

 **************************************************************************

                    xk=(   0.25000,   0.14434,   0.00000  )

     Band symmetry, C_1 (1)     point group:

     e(  1 -  1) =    -13.01693  eV     1   --> A              
     e(  2 -  2) =     -9.11832  eV     1   --> A              
     e(  3 -  3) =     -6.14483  eV     1   --> A              
     e(  4 -  4) =     -5.84471  eV     1   --> A              
     e(  5 -  5) =     -4.25896  eV     1   --> A              
     e(  6 -  6) =     -0.83786  eV     1   --> A              
     e(  7 -  7) =      1.08563  eV     1   --> A              
     e(  8 -  8) =      1.35654  eV     1   --> A              
     e(  9 -  9) =      2.14347  eV     1   --> A              
     e( 10 - 10) =      2.33429  eV     1   --> A              

 **************************************************************************

 **************************************************************************

                    xk=(   0.26667,   0.15396,   0.00000  )

     Band symmetry, C_1 (1)     point group:

     e(  1 -  1) =    -12.92914  eV     1   --> A              
     e(  2 -  2) =     -9.14815  eV     1   --> A              
     e(  3 -  3) =     -6.28549  eV     1   --> A              
     e(  4 -  4) =     -5.87263  eV     1   --> A              
     e(  5 -  5) =     -4.32554  eV     1   --> A              
     e(  6 -  6) =     -0.89380  eV     1   --> A              
     e(  7 -  7) =      1.12923  eV     1   --> A              
     e(  8 -  8) =      1.29647  eV     1   --> A              
     e(  9 -  9) =      2.19494  eV     1   --> A              
     e( 10 - 10) =      2.43871  eV     1   --> A              

 **************************************************************************

 **************************************************************************

                    xk=(   0.28333,   0.16359,   0.00000  )

     Band symmetry, C_1 (1)     point group:

     e(  1 -  1) =    -12.83682  eV     1   --> A              
     e(  2 -  2) =     -9.18892  eV     1   --> A              
     e(  3 -  3) =     -6.41928  eV     1   --> A              
     e(  4 -  4) =     -5.89271  eV     1   --> A              
     e(  5 -  5) =     -4.38889  eV     1   --> A              
     e(  6 -  6) =     -0.94582  eV     1   --> A              
     e(  7 -  7) =      1.13440  eV     1   --> A              
     e(  8 -  8) =      1.24995  eV     1   --> A              
     e(  9 -  9) =      2.24964  eV     1   --> A              
     e( 10 - 10) =      2.55302  eV     1   --> A              

 **************************************************************************

 **************************************************************************

                    xk=(   0.30000,   0.17321,   0.00000  )

     Band symmetry, C_1 (1)     point group:

     e(  1 -  1) =    -12.74032  eV     1   --> A              
     e(  2 -  2) =     -9.24164  eV     1   --> A              
     e(  3 -  3) =     -6.53892  eV     1   --> A              
     e(  4 -  4) =     -5.91079  eV     1   --> A              
     e(  5 -  5) =     -4.44864  eV     1   --> A              
     e(  6 -  6) =     -0.99334  eV     1   --> A              
     e(  7 -  7) =      1.06739  eV     1   --> A              
     e(  8 -  8) =      1.25679  eV     1   --> A              
     e(  9 -  9) =      2.31435  eV     1   --> A              
     e( 10 - 10) =      2.67389  eV     1   --> A              

 **************************************************************************

 **************************************************************************

                    xk=(   0.31667,   0.18283,   0.00000  )

     Band symmetry, C_1 (1)     point group:

     e(  1 -  1) =    -12.64005  eV     1   --> A              
     e(  2 -  2) =     -9.30675  eV     1   --> A              
     e(  3 -  3) =     -6.64168  eV     1   --> A              
     e(  4 -  4) =     -5.92884  eV     1   --> A              
     e(  5 -  5) =     -4.50449  eV     1   --> A              
     e(  6 -  6) =     -1.03599  eV     1   --> A              
     e(  7 -  7) =      0.97180  eV     1   --> A              
     e(  8 -  8) =      1.27891  eV     1   --> A              
     e(  9 -  9) =      2.39101  eV     1   --> A              
     e( 10 - 10) =      2.80115  eV     1   --> A              

 **************************************************************************

 **************************************************************************

                    xk=(   0.33333,   0.19246,   0.00000  )

     Band symmetry, C_1 (1)     point group:

     e(  1 -  1) =    -12.53657  eV     1   --> A              
     e(  2 -  2) =     -9.38410  eV     1   --> A              
     e(  3 -  3) =     -6.72679  eV     1   --> A              
     e(  4 -  4) =     -5.94759  eV     1   --> A              
     e(  5 -  5) =     -4.55618  eV     1   --> A              
     e(  6 -  6) =     -1.07363  eV     1   --> A              
     e(  7 -  7) =      0.87083  eV     1   --> A              
     e(  8 -  8) =      1.29772  eV     1   --> A              
     e(  9 -  9) =      2.47996  eV     1   --> A              
     e( 10 - 10) =      2.88901  eV     1   --> A              

 **************************************************************************

 **************************************************************************

                    xk=(   0.35000,   0.20208,   0.00000  )

     Band symmetry, C_1 (1)     point group:

     e(  1 -  1) =    -12.43061  eV     1   --> A              
     e(  2 -  2) =     -9.47262  eV     1   --> A              
     e(  3 -  3) =     -6.79464  eV     1   --> A              
     e(  4 -  4) =     -5.96718  eV     1   --> A              
     e(  5 -  5) =     -4.60349  eV     1   --> A              
     e(  6 -  6) =     -1.10623  eV     1   --> A              
     e(  7 -  7) =      0.77125  eV     1   --> A              
     e(  8 -  8) =      1.31057  eV     1   --> A              
     e(  9 -  9) =      2.58092  eV     1   --> A              
     e( 10 - 10) =      2.93294  eV     1   --> A              

 **************************************************************************

 **************************************************************************

                    xk=(   0.36667,   0.21170,   0.00000  )

     Band symmetry, C_1 (1)     point group:

     e(  1 -  1) =    -12.32306  eV     1   --> A              
     e(  2 -  2) =     -9.57029  eV     1   --> A              
     e(  3 -  3) =     -6.84647  eV     1   --> A              
     e(  4 -  4) =     -5.98723  eV     1   --> A              
     e(  5 -  5) =     -4.64625  eV     1   --> A              
     e(  6 -  6) =     -1.13393  eV     1   --> A              
     e(  7 -  7) =      0.67649  eV     1   --> A              
     e(  8 -  8) =      1.31781  eV     1   --> A              
     e(  9 -  9) =      2.69326  eV     1   --> A              
     e( 10 - 10) =      2.96171  eV     1   --> A              

 **************************************************************************

 **************************************************************************

                    xk=(   0.38333,   0.22132,   0.00000  )

     Band symmetry, C_1 (1)     point group:

     e(  1 -  1) =    -12.21520  eV     1   --> A              
     e(  2 -  2) =     -9.67456  eV     1   --> A              
     e(  3 -  3) =     -6.88425  eV     1   --> A              
     e(  4 -  4) =     -6.00750  eV     1   --> A              
     e(  5 -  5) =     -4.68429  eV     1   --> A              
     e(  6 -  6) =     -1.15696  eV     1   --> A              
     e(  7 -  7) =      0.58880  eV     1   --> A              
     e(  8 -  8) =      1.32045  eV     1   --> A              
     e(  9 -  9) =      2.81618  eV     1   --> A              
     e( 10 - 10) =      2.97915  eV     1   --> A              

 **************************************************************************

 **************************************************************************

                    xk=(   0.40000,   0.23095,   0.00000  )

     Band symmetry, C_1 (1)     point group:

     e(  1 -  1) =    -12.10874  eV     1   --> A              
     e(  2 -  2) =     -9.78206  eV     1   --> A              
     e(  3 -  3) =     -6.91028  eV     1   --> A              
     e(  4 -  4) =     -6.02741  eV     1   --> A              
     e(  5 -  5) =     -4.71749  eV     1   --> A              
     e(  6 -  6) =     -1.17565  eV     1   --> A              
     e(  7 -  7) =      0.50985  eV     1   --> A              
     e(  8 -  8) =      1.31973  eV     1   --> A              
     e(  9 -  9) =      2.94877  eV     1   --> A              
     e( 10 - 10) =      2.98860  eV     1   --> A              

 **************************************************************************

 **************************************************************************

                    xk=(   0.41667,   0.24057,   0.00000  )

     Band symmetry, C_1 (1)     point group:

     e(  1 -  1) =    -12.00601  eV     1   --> A              
     e(  2 -  2) =     -9.88880  eV     1   --> A              
     e(  3 -  3) =     -6.92697  eV     1   --> A              
     e(  4 -  4) =     -6.04626  eV     1   --> A              
     e(  5 -  5) =     -4.74575  eV     1   --> A              
     e(  6 -  6) =     -1.19040  eV     1   --> A              
     e(  7 -  7) =      0.44093  eV     1   --> A              
     e(  8 -  8) =      1.31689  eV     1   --> A              
     e(  9 -  9) =      2.99278  eV     1   --> A              
     e( 10 - 10) =      3.09016  eV     1   --> A              

 **************************************************************************

 **************************************************************************

                    xk=(   0.43333,   0.25019,   0.00000  )

     Band symmetry, C_1 (1)     point group:

     e(  1 -  1) =    -11.91029  eV     1   --> A              
     e(  2 -  2) =     -9.98998  eV     1   --> A              
     e(  3 -  3) =     -6.93672  eV     1   --> A              
     e(  4 -  4) =     -6.06333  eV     1   --> A              
     e(  5 -  5) =     -4.76899  eV     1   --> A              
     e(  6 -  6) =     -1.20164  eV     1   --> A              
     e(  7 -  7) =      0.38312  eV     1   --> A              
     e(  8 -  8) =      1.31307  eV     1   --> A              
     e(  9 -  9) =      2.99380  eV     1   --> A              
     e( 10 - 10) =      3.23950  eV     1   --> A              

 **************************************************************************

 **************************************************************************

                    xk=(   0.45000,   0.25982,   0.00000  )

     Band symmetry, C_1 (1)     point group:

     e(  1 -  1) =    -11.82596  eV     1   --> A              
     e(  2 -  2) =    -10.07992  eV     1   --> A              
     e(  3 -  3) =     -6.94165  eV     1   --> A              
     e(  4 -  4) =     -6.07770  eV     1   --> A              
     e(  5 -  5) =     -4.78712  eV     1   --> A              
     e(  6 -  6) =     -1.20981  eV     1   --> A              
     e(  7 -  7) =      0.33725  eV     1   --> A              
     e(  8 -  8) =      1.30918  eV     1   --> A              
     e(  9 -  9) =      2.99319  eV     1   --> A              
     e( 10 - 10) =      3.39592  eV     1   --> A              

 **************************************************************************

 **************************************************************************

                    xk=(   0.46667,   0.26944,   0.00000  )

     Band symmetry, C_1 (1)     point group:

     e(  1 -  1) =    -11.75866  eV     1   --> A              
     e(  2 -  2) =    -10.15197  eV     1   --> A              
     e(  3 -  3) =     -6.94373  eV     1   --> A              
     e(  4 -  4) =     -6.08870  eV     1   --> A              
     e(  5 -  5) =     -4.80011  eV     1   --> A              
     e(  6 -  6) =     -1.21532  eV     1   --> A              
     e(  7 -  7) =      0.30398  eV     1   --> A              
     e(  8 -  8) =      1.30589  eV     1   --> A              
     e(  9 -  9) =      2.99204  eV     1   --> A              
     e( 10 - 10) =      3.55853  eV     1   --> A              

 **************************************************************************

 **************************************************************************

                    xk=(   0.48333,   0.27906,   0.00000  )

     Band symmetry, C_1 (1)     point group:

     e(  1 -  1) =    -11.71467  eV     1   --> A              
     e(  2 -  2) =    -10.19915  eV     1   --> A              
     e(  3 -  3) =     -6.94445  eV     1   --> A              
     e(  4 -  4) =     -6.09567  eV     1   --> A              
     e(  5 -  5) =     -4.80792  eV     1   --> A              
     e(  6 -  6) =     -1.21848  eV     1   --> A              
     e(  7 -  7) =      0.28380  eV     1   --> A              
     e(  8 -  8) =      1.30365  eV     1   --> A              
     e(  9 -  9) =      2.99108  eV     1   --> A              
     e( 10 - 10) =      3.72621  eV     1   --> A              

 **************************************************************************

 **************************************************************************

                    xk=(   0.50000,   0.28868,   0.00000  )

     Band symmetry, C_1 (1)     point group:

     e(  1 -  1) =    -11.69929  eV     1   --> A              
     e(  2 -  2) =    -10.21564  eV     1   --> A              
     e(  3 -  3) =     -6.94457  eV     1   --> A              
     e(  4 -  4) =     -6.09807  eV     1   --> A              
     e(  5 -  5) =     -4.81052  eV     1   --> A              
     e(  6 -  6) =     -1.21951  eV     1   --> A              
     e(  7 -  7) =      0.27704  eV     1   --> A              
     e(  8 -  8) =      1.30289  eV     1   --> A              
     e(  9 -  9) =      2.99072  eV     1   --> A              
     e( 10 - 10) =      3.90251  eV     1   --> A              

 **************************************************************************

 **************************************************************************

                    xk=(   0.48333,   0.29189,   0.00000  )

     Band symmetry, C_1 (1)     point group:

     e(  1 -  1) =    -11.70515  eV     1   --> A              
     e(  2 -  2) =    -10.20851  eV     1   --> A              
     e(  3 -  3) =     -6.94391  eV     1   --> A              
     e(  4 -  4) =     -6.09716  eV     1   --> A              
     e(  5 -  5) =     -4.81634  eV     1   --> A              
     e(  6 -  6) =     -1.20888  eV     1   --> A              
     e(  7 -  7) =      0.28086  eV     1   --> A              
     e(  8 -  8) =      1.30359  eV     1   --> A              
     e(  9 -  9) =      2.97972  eV     1   --> A              
     e( 10 - 10) =      3.78780  eV     1   --> A              

 **************************************************************************

 **************************************************************************

                    xk=(   0.46667,   0.29510,   0.00000  )

     Band symmetry, C_1 (1)     point group:

     e(  1 -  1) =    -11.72233  eV     1   --> A              
     e(  2 -  2) =    -10.18764  eV     1   --> A              
     e(  3 -  3) =     -6.94191  eV     1   --> A              
     e(  4 -  4) =     -6.09463  eV     1   --> A              
     e(  5 -  5) =     -4.83352  eV     1   --> A              
     e(  6 -  6) =     -1.17727  eV     1   --> A              
     e(  7 -  7) =      0.29232  eV     1   --> A              
     e(  8 -  8) =      1.30554  eV     1   --> A              
     e(  9 -  9) =      2.94735  eV     1   --> A              
     e( 10 - 10) =      3.69027  eV     1   --> A              

 **************************************************************************

 **************************************************************************

                    xk=(   0.45000,   0.29830,   0.00000  )

     Band symmetry, C_1 (1)     point group:

     e(  1 -  1) =    -11.74969  eV     1   --> A              
     e(  2 -  2) =    -10.15435  eV     1   --> A              
     e(  3 -  3) =     -6.93834  eV     1   --> A              
     e(  4 -  4) =     -6.09069  eV     1   --> A              
     e(  5 -  5) =     -4.86123  eV     1   --> A              
     e(  6 -  6) =     -1.12555  eV     1   --> A              
     e(  7 -  7) =      0.31159  eV     1   --> A              
     e(  8 -  8) =      1.30838  eV     1   --> A              
     e(  9 -  9) =      2.89557  eV     1   --> A              
     e( 10 - 10) =      3.60540  eV     1   --> A              

 **************************************************************************

 **************************************************************************

                    xk=(   0.43333,   0.30151,   0.00000  )

     Band symmetry, C_1 (1)     point group:

     e(  1 -  1) =    -11.78557  eV     1   --> A              
     e(  2 -  2) =    -10.11050  eV     1   --> A              
     e(  3 -  3) =     -6.93274  eV     1   --> A              
     e(  4 -  4) =     -6.08559  eV     1   --> A              
     e(  5 -  5) =     -4.89818  eV     1   --> A              
     e(  6 -  6) =     -1.05509  eV     1   --> A              
     e(  7 -  7) =      0.33889  eV     1   --> A              
     e(  8 -  8) =      1.31160  eV     1   --> A              
     e(  9 -  9) =      2.82771  eV     1   --> A              
     e( 10 - 10) =      3.53264  eV     1   --> A              

 **************************************************************************

 **************************************************************************

                    xk=(   0.41667,   0.30472,   0.00000  )

     Band symmetry, C_1 (1)     point group:

     e(  1 -  1) =    -11.82816  eV     1   --> A              
     e(  2 -  2) =    -10.05831  eV     1   --> A              
     e(  3 -  3) =     -6.92461  eV     1   --> A              
     e(  4 -  4) =     -6.07977  eV     1   --> A              
     e(  5 -  5) =     -4.94277  eV     1   --> A              
     e(  6 -  6) =     -0.96757  eV     1   --> A              
     e(  7 -  7) =      0.37456  eV     1   --> A              
     e(  8 -  8) =      1.31442  eV     1   --> A              
     e(  9 -  9) =      2.74799  eV     1   --> A              
     e( 10 - 10) =      3.47036  eV     1   --> A              

 **************************************************************************

 **************************************************************************

                    xk=(   0.40000,   0.30792,   0.00000  )

     Band symmetry, C_1 (1)     point group:

     e(  1 -  1) =    -11.87569  eV     1   --> A              
     e(  2 -  2) =     -9.99997  eV     1   --> A              
     e(  3 -  3) =     -6.91331  eV     1   --> A              
     e(  4 -  4) =     -6.07370  eV     1   --> A              
     e(  5 -  5) =     -4.99319  eV     1   --> A              
     e(  6 -  6) =     -0.86498  eV     1   --> A              
     e(  7 -  7) =      0.41903  eV     1   --> A              
     e(  8 -  8) =      1.31593  eV     1   --> A              
     e(  9 -  9) =      2.66079  eV     1   --> A              
     e( 10 - 10) =      3.41661  eV     1   --> A              

 **************************************************************************

 **************************************************************************

                    xk=(   0.38333,   0.31113,   0.00000  )

     Band symmetry, C_1 (1)     point group:

     e(  1 -  1) =    -11.92652  eV     1   --> A              
     e(  2 -  2) =     -9.93756  eV     1   --> A              
     e(  3 -  3) =     -6.89813  eV     1   --> A              
     e(  4 -  4) =     -6.06787  eV     1   --> A              
     e(  5 -  5) =     -5.04752  eV     1   --> A              
     e(  6 -  6) =     -0.74941  eV     1   --> A              
     e(  7 -  7) =      0.47287  eV     1   --> A              
     e(  8 -  8) =      1.31509  eV     1   --> A              
     e(  9 -  9) =      2.56995  eV     1   --> A              
     e( 10 - 10) =      3.36974  eV     1   --> A              

 **************************************************************************

 **************************************************************************

                    xk=(   0.36667,   0.31433,   0.00000  )

     Band symmetry, C_1 (1)     point group:

     e(  1 -  1) =    -11.97931  eV     1   --> A              
     e(  2 -  2) =     -9.87311  eV     1   --> A              
     e(  3 -  3) =     -6.87848  eV     1   --> A              
     e(  4 -  4) =     -6.06290  eV     1   --> A              
     e(  5 -  5) =     -5.10378  eV     1   --> A              
     e(  6 -  6) =     -0.62309  eV     1   --> A              
     e(  7 -  7) =      0.53670  eV     1   --> A              
     e(  8 -  8) =      1.31064  eV     1   --> A              
     e(  9 -  9) =      2.47864  eV     1   --> A              
     e( 10 - 10) =      3.32852  eV     1   --> A              

 **************************************************************************

 **************************************************************************

                    xk=(   0.35000,   0.31754,   0.00000  )

     Band symmetry, C_1 (1)     point group:

     e(  1 -  1) =    -12.03289  eV     1   --> A              
     e(  2 -  2) =     -9.80832  eV     1   --> A              
     e(  3 -  3) =     -6.85378  eV     1   --> A              
     e(  4 -  4) =     -6.05940  eV     1   --> A              
     e(  5 -  5) =     -5.15998  eV     1   --> A              
     e(  6 -  6) =     -0.48832  eV     1   --> A              
     e(  7 -  7) =      0.61131  eV     1   --> A              
     e(  8 -  8) =      1.30133  eV     1   --> A              
     e(  9 -  9) =      2.38939  eV     1   --> A              
     e( 10 - 10) =      3.29206  eV     1   --> A              

 **************************************************************************

 **************************************************************************

                    xk=(   0.33333,   0.32075,   0.00000  )

     Band symmetry, C_1 (1)     point group:

     e(  1 -  1) =    -12.08633  eV     1   --> A              
     e(  2 -  2) =     -9.74475  eV     1   --> A              
     e(  3 -  3) =     -6.82363  eV     1   --> A              
     e(  4 -  4) =     -6.05799  eV     1   --> A              
     e(  5 -  5) =     -5.21415  eV     1   --> A              
     e(  6 -  6) =     -0.34748  eV     1   --> A              
     e(  7 -  7) =      0.69750  eV     1   --> A              
     e(  8 -  8) =      1.28583  eV     1   --> A              
     e(  9 -  9) =      2.30424  eV     1   --> A              
     e( 10 - 10) =      3.25967  eV     1   --> A              

 **************************************************************************

 **************************************************************************

                    xk=(   0.31667,   0.32395,   0.00000  )

     Band symmetry, C_1 (1)     point group:

     e(  1 -  1) =    -12.13888  eV     1   --> A              
     e(  2 -  2) =     -9.68373  eV     1   --> A              
     e(  3 -  3) =     -6.78792  eV     1   --> A              
     e(  4 -  4) =     -6.05922  eV     1   --> A              
     e(  5 -  5) =     -5.26430  eV     1   --> A              
     e(  6 -  6) =     -0.20300  eV     1   --> A              
     e(  7 -  7) =      0.79606  eV     1   --> A              
     e(  8 -  8) =      1.26290  eV     1   --> A              
     e(  9 -  9) =      2.22488  eV     1   --> A              
     e( 10 - 10) =      3.23060  eV     1   --> A              

 **************************************************************************

 **************************************************************************

                    xk=(   0.30000,   0.32716,   0.00000  )

     Band symmetry, C_1 (1)     point group:

     e(  1 -  1) =    -12.18988  eV     1   --> A              
     e(  2 -  2) =     -9.62635  eV     1   --> A              
     e(  3 -  3) =     -6.74688  eV     1   --> A              
     e(  4 -  4) =     -6.06338  eV     1   --> A              
     e(  5 -  5) =     -5.30846  eV     1   --> A              
     e(  6 -  6) =     -0.05730  eV     1   --> A              
     e(  7 -  7) =      0.90739  eV     1   --> A              
     e(  8 -  8) =      1.23165  eV     1   --> A              
     e(  9 -  9) =      2.15272  eV     1   --> A              
     e( 10 - 10) =      3.20367  eV     1   --> A              

 **************************************************************************

 **************************************************************************

                    xk=(   0.28333,   0.33037,   0.00000  )

     Band symmetry, C_1 (1)     point group:

     e(  1 -  1) =    -12.23885  eV     1   --> A              
     e(  2 -  2) =     -9.57349  eV     1   --> A              
     e(  3 -  3) =     -6.70138  eV     1   --> A              
     e(  4 -  4) =     -6.07053  eV     1   --> A              
     e(  5 -  5) =     -5.34477  eV     1   --> A              
     e(  6 -  6) =      0.08731  eV     1   --> A              
     e(  7 -  7) =      1.02935  eV     1   --> A              
     e(  8 -  8) =      1.19337  eV     1   --> A              
     e(  9 -  9) =      2.08888  eV     1   --> A              
     e( 10 - 10) =      3.16976  eV     1   --> A              

 **************************************************************************

 **************************************************************************

                    xk=(   0.26667,   0.33357,   0.00000  )

     Band symmetry, C_1 (1)     point group:

     e(  1 -  1) =    -12.28539  eV     1   --> A              
     e(  2 -  2) =     -9.52580  eV     1   --> A              
     e(  3 -  3) =     -6.65303  eV     1   --> A              
     e(  4 -  4) =     -6.07995  eV     1   --> A              
     e(  5 -  5) =     -5.37150  eV     1   --> A              
     e(  6 -  6) =      0.22877  eV     1   --> A              
     e(  7 -  7) =      1.10843  eV     1   --> A              
     e(  8 -  8) =      1.20003  eV     1   --> A              
     e(  9 -  9) =      2.03414  eV     1   --> A              
     e( 10 - 10) =      2.95856  eV     1   --> A              

 **************************************************************************

 **************************************************************************

                    xk=(   0.25000,   0.33678,   0.00000  )

     Band symmetry, C_1 (1)     point group:

     e(  1 -  1) =    -12.32912  eV     1   --> A              
     e(  2 -  2) =     -9.48364  eV     1   --> A              
     e(  3 -  3) =     -6.60452  eV     1   --> A              
     e(  4 -  4) =     -6.08994  eV     1   --> A              
     e(  5 -  5) =     -5.38711  eV     1   --> A              
     e(  6 -  6) =      0.36538  eV     1   --> A              
     e(  7 -  7) =      1.05515  eV     1   --> A              
     e(  8 -  8) =      1.33808  eV     1   --> A              
     e(  9 -  9) =      1.98893  eV     1   --> A              
     e( 10 - 10) =      2.68382  eV     1   --> A              

 **************************************************************************

 **************************************************************************

                    xk=(   0.23333,   0.33998,   0.00000  )

     Band symmetry, C_1 (1)     point group:

     e(  1 -  1) =    -12.36978  eV     1   --> A              
     e(  2 -  2) =     -9.44722  eV     1   --> A              
     e(  3 -  3) =     -6.55984  eV     1   --> A              
     e(  4 -  4) =     -6.09781  eV     1   --> A              
     e(  5 -  5) =     -5.39027  eV     1   --> A              
     e(  6 -  6) =      0.49561  eV     1   --> A              
     e(  7 -  7) =      0.97357  eV     1   --> A              
     e(  8 -  8) =      1.49712  eV     1   --> A              
     e(  9 -  9) =      1.95277  eV     1   --> A              
     e( 10 - 10) =      2.42516  eV     1   --> A              

 **************************************************************************

 **************************************************************************

                    xk=(   0.21667,   0.34319,   0.00000  )

     Band symmetry, C_1 (1)     point group:

     e(  1 -  1) =    -12.40715  eV     1   --> A              
     e(  2 -  2) =     -9.41655  eV     1   --> A              
     e(  3 -  3) =     -6.52410  eV     1   --> A              
     e(  4 -  4) =     -6.09993  eV     1   --> A              
     e(  5 -  5) =     -5.37978  eV     1   --> A              
     e(  6 -  6) =      0.61721  eV     1   --> A              
     e(  7 -  7) =      0.87310  eV     1   --> A              
     e(  8 -  8) =      1.65205  eV     1   --> A              
     e(  9 -  9) =      1.92079  eV     1   --> A              
     e( 10 - 10) =      2.21108  eV     1   --> A              

 **************************************************************************

 **************************************************************************

                    xk=(   0.20000,   0.34640,   0.00000  )

     Band symmetry, C_1 (1)     point group:

     e(  1 -  1) =    -12.44103  eV     1   --> A              
     e(  2 -  2) =     -9.39147  eV     1   --> A              
     e(  3 -  3) =     -6.50207  eV     1   --> A              
     e(  4 -  4) =     -6.09305  eV     1   --> A              
     e(  5 -  5) =     -5.35453  eV     1   --> A              
     e(  6 -  6) =      0.70466  eV     1   --> A              
     e(  7 -  7) =      0.77569  eV     1   --> A              
     e(  8 -  8) =      1.73683  eV     1   --> A              
     e(  9 -  9) =      1.88277  eV     1   --> A              
     e( 10 - 10) =      2.12275  eV     1   --> A              

 **************************************************************************

 **************************************************************************

                    xk=(   0.18333,   0.34960,   0.00000  )

     Band symmetry, C_1 (1)     point group:

     e(  1 -  1) =    -12.47124  eV     1   --> A              
     e(  2 -  2) =     -9.37162  eV     1   --> A              
     e(  3 -  3) =     -6.49583  eV     1   --> A              
     e(  4 -  4) =     -6.07677  eV     1   --> A              
     e(  5 -  5) =     -5.31372  eV     1   --> A              
     e(  6 -  6) =      0.58726  eV     1   --> A              
     e(  7 -  7) =      0.84848  eV     1   --> A              
     e(  8 -  8) =      1.64254  eV     1   --> A              
     e(  9 -  9) =      1.89312  eV     1   --> A              
     e( 10 - 10) =      2.21809  eV     1   --> A              

 **************************************************************************

 **************************************************************************

                    xk=(   0.16667,   0.35281,   0.00000  )

     Band symmetry, C_1 (1)     point group:

     e(  1 -  1) =    -12.49765  eV     1   --> A              
     e(  2 -  2) =     -9.35668  eV     1   --> A              
     e(  3 -  3) =     -6.50359  eV     1   --> A              
     e(  4 -  4) =     -6.05415  eV     1   --> A              
     e(  5 -  5) =     -5.25719  eV     1   --> A              
     e(  6 -  6) =      0.41587  eV     1   --> A              
     e(  7 -  7) =      0.93954  eV     1   --> A              
     e(  8 -  8) =      1.50663  eV     1   --> A              
     e(  9 -  9) =      1.91608  eV     1   --> A              
     e( 10 - 10) =      2.39432  eV     1   --> A              

 **************************************************************************

 **************************************************************************

                    xk=(   0.15000,   0.35602,   0.00000  )

     Band symmetry, C_1 (1)     point group:

     e(  1 -  1) =    -12.52015  eV     1   --> A              
     e(  2 -  2) =     -9.34614  eV     1   --> A              
     e(  3 -  3) =     -6.52128  eV     1   --> A              
     e(  4 -  4) =     -6.02974  eV     1   --> A              
     e(  5 -  5) =     -5.18594  eV     1   --> A              
     e(  6 -  6) =      0.22463  eV     1   --> A              
     e(  7 -  7) =      1.01718  eV     1   --> A              
     e(  8 -  8) =      1.38847  eV     1   --> A              
     e(  9 -  9) =      1.94799  eV     1   --> A              
     e( 10 - 10) =      2.58567  eV     1   --> A              

 **************************************************************************

 **************************************************************************

                    xk=(   0.13333,   0.35922,   0.00000  )

     Band symmetry, C_1 (1)     point group:

     e(  1 -  1) =    -12.53865  eV     1   --> A              
     e(  2 -  2) =     -9.33957  eV     1   --> A              
     e(  3 -  3) =     -6.54495  eV     1   --> A              
     e(  4 -  4) =     -6.00705  eV     1   --> A              
     e(  5 -  5) =     -5.10232  eV     1   --> A              
     e(  6 -  6) =      0.02278  eV     1   --> A              
     e(  7 -  7) =      1.07530  eV     1   --> A              
     e(  8 -  8) =      1.29630  eV     1   --> A              
     e(  9 -  9) =      1.99293  eV     1   --> A              
     e( 10 - 10) =      2.74659  eV     1   --> A              

 **************************************************************************

 **************************************************************************

                    xk=(   0.11667,   0.36243,   0.00000  )

     Band symmetry, C_1 (1)     point group:

     e(  1 -  1) =    -12.55307  eV     1   --> A              
     e(  2 -  2) =     -9.33658  eV     1   --> A              
     e(  3 -  3) =     -6.57159  eV     1   --> A              
     e(  4 -  4) =     -5.98795  eV     1   --> A              
     e(  5 -  5) =     -5.00992  eV     1   --> A              
     e(  6 -  6) =     -0.18096  eV     1   --> A              
     e(  7 -  7) =      1.10065  eV     1   --> A              
     e(  8 -  8) =      1.24017  eV     1   --> A              
     e(  9 -  9) =      2.05092  eV     1   --> A              
     e( 10 - 10) =      2.81715  eV     1   --> A              

 **************************************************************************

 **************************************************************************

                    xk=(   0.10000,   0.36564,   0.00000  )

     Band symmetry, C_1 (1)     point group:

     e(  1 -  1) =    -12.56333  eV     1   --> A              
     e(  2 -  2) =     -9.33671  eV     1   --> A              
     e(  3 -  3) =     -6.59909  eV     1   --> A              
     e(  4 -  4) =     -5.97286  eV     1   --> A              
     e(  5 -  5) =     -4.91325  eV     1   --> A              
     e(  6 -  6) =     -0.37870  eV     1   --> A              
     e(  7 -  7) =      1.07809  eV     1   --> A              
     e(  8 -  8) =      1.23302  eV     1   --> A              
     e(  9 -  9) =      2.11950  eV     1   --> A              
     e( 10 - 10) =      2.83235  eV     1   --> A              

 **************************************************************************

 **************************************************************************

                    xk=(   0.08333,   0.36884,   0.00000  )

     Band symmetry, C_1 (1)     point group:

     e(  1 -  1) =    -12.56940  eV     1   --> A              
     e(  2 -  2) =     -9.33960  eV     1   --> A              
     e(  3 -  3) =     -6.62604  eV     1   --> A              
     e(  4 -  4) =     -5.96166  eV     1   --> A              
     e(  5 -  5) =     -4.81749  eV     1   --> A              
     e(  6 -  6) =     -0.56337  eV     1   --> A              
     e(  7 -  7) =      1.03392  eV     1   --> A              
     e(  8 -  8) =      1.24799  eV     1   --> A              
     e(  9 -  9) =      2.19451  eV     1   --> A              
     e( 10 - 10) =      2.83692  eV     1   --> A              

 **************************************************************************

 **************************************************************************

                    xk=(   0.06667,   0.37205,   0.00000  )

     Band symmetry, C_1 (1)     point group:

     e(  1 -  1) =    -12.57123  eV     1   --> A              
     e(  2 -  2) =     -9.34493  eV     1   --> A              
     e(  3 -  3) =     -6.65146  eV     1   --> A              
     e(  4 -  4) =     -5.95390  eV     1   --> A              
     e(  5 -  5) =     -4.72829  eV     1   --> A              
     e(  6 -  6) =     -0.72834  eV     1   --> A              
     e(  7 -  7) =      0.99000  eV     1   --> A              
     e(  8 -  8) =      1.26377  eV     1   --> A              
     e(  9 -  9) =      2.27089  eV     1   --> A              
     e( 10 - 10) =      2.84233  eV     1   --> A              

 **************************************************************************

 **************************************************************************

                    xk=(   0.05000,   0.37525,   0.00000  )

     Band symmetry, C_1 (1)     point group:

     e(  1 -  1) =    -12.56879  eV     1   --> A              
     e(  2 -  2) =     -9.35243  eV     1   --> A              
     e(  3 -  3) =     -6.67468  eV     1   --> A              
     e(  4 -  4) =     -5.94910  eV     1   --> A              
     e(  5 -  5) =     -4.65165  eV     1   --> A              
     e(  6 -  6) =     -0.86721  eV     1   --> A              
     e(  7 -  7) =      0.95132  eV     1   --> A              
     e(  8 -  8) =      1.27629  eV     1   --> A              
     e(  9 -  9) =      2.34317  eV     1   --> A              
     e( 10 - 10) =      2.85144  eV     1   --> A              

 **************************************************************************

 **************************************************************************

                    xk=(   0.03333,   0.37846,   0.00000  )

     Band symmetry, C_1 (1)     point group:

     e(  1 -  1) =    -12.56205  eV     1   --> A              
     e(  2 -  2) =     -9.36188  eV     1   --> A              
     e(  3 -  3) =     -6.69524  eV     1   --> A              
     e(  4 -  4) =     -5.94689  eV     1   --> A              
     e(  5 -  5) =     -4.59357  eV     1   --> A              
     e(  6 -  6) =     -0.97381  eV     1   --> A              
     e(  7 -  7) =      0.91882  eV     1   --> A              
     e(  8 -  8) =      1.28544  eV     1   --> A              
     e(  9 -  9) =      2.40572  eV     1   --> A              
     e( 10 - 10) =      2.86439  eV     1   --> A              

 **************************************************************************

 **************************************************************************

                    xk=(   0.01667,   0.38167,   0.00000  )

     Band symmetry, C_1 (1)     point group:

     e(  1 -  1) =    -12.55101  eV     1   --> A              
     e(  2 -  2) =     -9.37320  eV     1   --> A              
     e(  3 -  3) =     -6.71280  eV     1   --> A              
     e(  4 -  4) =     -5.94696  eV     1   --> A              
     e(  5 -  5) =     -4.55941  eV     1   --> A              
     e(  6 -  6) =     -1.04273  eV     1   --> A              
     e(  7 -  7) =      0.89262  eV     1   --> A              
     e(  8 -  8) =      1.29168  eV     1   --> A              
     e(  9 -  9) =      2.45295  eV     1   --> A              
     e( 10 - 10) =      2.87802  eV     1   --> A              

 **************************************************************************

 **************************************************************************

                    xk=(   0.00000,   0.38487,   0.00000  )

     point group C_s (m)    
     there are  2 classes
     the character table:

       E     s    
A'     1.00  1.00
A''    1.00 -1.00

     the symmetry operations in each class and the name of the first element:

     E        1
                                                                 
     s        2
                                                                 

     Band symmetry, C_s (m)     point group:

     e(  1 -  1) =    -12.53566  eV     1   --> A'             
     e(  2 -  2) =     -9.38626  eV     1   --> A'             
     e(  3 -  3) =     -6.72714  eV     1   --> A'             
     e(  4 -  4) =     -5.94913  eV     1   --> A'             
     e(  5 -  5) =     -4.55304  eV     1   --> A''            
     e(  6 -  6) =     -1.07010  eV     1   --> A'             
     e(  7 -  7) =      0.87271  eV     1   --> A'             
     e(  8 -  8) =      1.29544  eV     1   --> A'             
     e(  9 -  9) =      2.48003  eV     1   --> A'             
     e( 10 - 10) =      2.88778  eV     1   --> A''            

 **************************************************************************

 **************************************************************************

                    xk=(   0.00000,   0.37204,   0.00324  )

     Band symmetry, C_s (m)     point group:

     e(  1 -  1) =    -12.60507  eV     1   --> A'             
     e(  2 -  2) =     -9.33315  eV     1   --> A'             
     e(  3 -  3) =     -6.67258  eV     1   --> A'             
     e(  4 -  4) =     -5.93648  eV     1   --> A'             
     e(  5 -  5) =     -4.51900  eV     1   --> A''            
     e(  6 -  6) =     -1.04553  eV     1   --> A'             
     e(  7 -  7) =      0.93991  eV     1   --> A'             
     e(  8 -  8) =      1.28376  eV     1   --> A'             
     e(  9 -  9) =      2.41789  eV     1   --> A'             
     e( 10 - 10) =      2.84791  eV     1   --> A''            

 **************************************************************************

 **************************************************************************

                    xk=(   0.00000,   0.35921,   0.00648  )

     Band symmetry, C_s (m)     point group:

     e(  1 -  1) =    -12.67314  eV     1   --> A'             
     e(  2 -  2) =     -9.28538  eV     1   --> A'             
     e(  3 -  3) =     -6.61015  eV     1   --> A'             
     e(  4 -  4) =     -5.92419  eV     1   --> A'             
     e(  5 -  5) =     -4.48307  eV     1   --> A''            
     e(  6 -  6) =     -1.01872  eV     1   --> A'             
     e(  7 -  7) =      1.00611  eV     1   --> A'             
     e(  8 -  8) =      1.26986  eV     1   --> A'             
     e(  9 -  9) =      2.36070  eV     1   --> A'             
     e( 10 - 10) =      2.79860  eV     1   -->   ?

 **************************************************************************

 **************************************************************************

                    xk=(   0.00000,   0.34639,   0.00972  )

     Band symmetry, C_s (m)     point group:

     e(  1 -  1) =    -12.73968  eV     1   --> A'             
     e(  2 -  2) =     -9.24313  eV     1   --> A'             
     e(  3 -  3) =     -6.53987  eV     1   --> A'             
     e(  4 -  4) =     -5.91212  eV     1   --> A'             
     e(  5 -  5) =     -4.44532  eV     1   --> A''            
     e(  6 -  6) =     -0.98969  eV     1   --> A'             
     e(  7 -  7) =      1.06827  eV     1   --> A'             
     e(  8 -  8) =      1.25549  eV     1   --> A'             
     e(  9 -  9) =      2.30840  eV     1   --> A'             
     e( 10 - 10) =      2.69389  eV     1   --> A'             

 **************************************************************************

 **************************************************************************

                    xk=(   0.00000,   0.33356,   0.01296  )

     Band symmetry, C_s (m)     point group:

     e(  1 -  1) =    -12.80454  eV     1   --> A'             
     e(  2 -  2) =     -9.20644  eV     1   --> A'             
     e(  3 -  3) =     -6.46204  eV     1   --> A'             
     e(  4 -  4) =     -5.90014  eV     1   --> A'             
     e(  5 -  5) =     -4.40583  eV     1   --> A''            
     e(  6 -  6) =     -0.95850  eV     1   --> A'             
     e(  7 -  7) =      1.11867  eV     1   --> A'             
     e(  8 -  8) =      1.24694  eV     1   --> A'             
     e(  9 -  9) =      2.26079  eV     1   --> A'             
     e( 10 - 10) =      2.62075  eV     1   --> A'             

 **************************************************************************

 **************************************************************************

                    xk=(   0.00000,   0.32073,   0.01620  )

     Band symmetry, C_s (m)     point group:

     e(  1 -  1) =    -12.86758  eV     1   --> A'             
     e(  2 -  2) =     -9.17520  eV     1   --> A'             
     e(  3 -  3) =     -6.37730  eV     1   --> A'             
     e(  4 -  4) =     -5.88765  eV     1   --> A'             
     e(  5 -  5) =     -4.36470  eV     1   --> A''            
     e(  6 -  6) =     -0.92525  eV     1   --> A'             
     e(  7 -  7) =      1.13978  eV     1   --> A'             
     e(  8 -  8) =      1.26014  eV     1   --> A'             
     e(  9 -  9) =      2.21752  eV     1   --> A'             
     e( 10 - 10) =      2.55043  eV     1   -->   ?

 **************************************************************************

 **************************************************************************

                    xk=(   0.00000,   0.30790,   0.01944  )

     Band symmetry, C_s (m)     point group:

     e(  1 -  1) =    -12.92870  eV     1   --> A'             
     e(  2 -  2) =     -9.14917  eV     1   --> A'             
     e(  3 -  3) =     -6.28686  eV     1   --> A'             
     e(  4 -  4) =     -5.87397  eV     1   --> A'             
     e(  5 -  5) =     -4.32200  eV     1   --> A''            
     e(  6 -  6) =     -0.89006  eV     1   --> A'             
     e(  7 -  7) =      1.12810  eV     1   --> A'             
     e(  8 -  8) =      1.29683  eV     1   --> A'             
     e(  9 -  9) =      2.17787  eV     1   --> A'             
     e( 10 - 10) =      2.48230  eV     1   --> A'             

 **************************************************************************

 **************************************************************************

                    xk=(   0.00000,   0.29507,   0.02268  )

     Band symmetry, C_s (m)     point group:

     e(  1 -  1) =    -12.98780  eV     1   --> A'             
     e(  2 -  2) =     -9.12802  eV     1   --> A'             
     e(  3 -  3) =     -6.19301  eV     1   --> A'             
     e(  4 -  4) =     -5.85711  eV     1   --> A'             
     e(  5 -  5) =     -4.27787  eV     1   --> A''            
     e(  6 -  6) =     -0.85313  eV     1   --> A'             
     e(  7 -  7) =      1.10098  eV     1   --> A'             
     e(  8 -  8) =      1.33781  eV     1   --> A'             
     e(  9 -  9) =      2.14054  eV     1   --> A'             
     e( 10 - 10) =      2.40496  eV     1   --> A''            

 **************************************************************************

 **************************************************************************

                    xk=(   0.00000,   0.28224,   0.02592  )

     Band symmetry, C_s (m)     point group:

     e(  1 -  1) =    -13.04480  eV     1   --> A'             
     e(  2 -  2) =     -9.11133  eV     1   --> A'             
     e(  3 -  3) =     -6.10060  eV     1   --> A'             
     e(  4 -  4) =     -5.83266  eV     1   --> A'             
     e(  5 -  5) =     -4.23241  eV     1   --> A''            
     e(  6 -  6) =     -0.81470  eV     1   --> A'             
     e(  7 -  7) =      1.06697  eV     1   --> A'             
     e(  8 -  8) =      1.37276  eV     1   --> A'             
     e(  9 -  9) =      2.10312  eV     1   --> A'             
     e( 10 - 10) =      2.30154  eV     1   --> A''            

 **************************************************************************

 **************************************************************************

                    xk=(   0.00000,   0.26941,   0.02916  )

     Band symmetry, C_s (m)     point group:

     e(  1 -  1) =    -13.09960  eV     1   --> A'             
     e(  2 -  2) =     -9.09861  eV     1   --> A'             
     e(  3 -  3) =     -6.01974  eV     1   --> A'             
     e(  4 -  4) =     -5.79111  eV     1   --> A'             
     e(  5 -  5) =     -4.18576  eV     1   --> A''            
     e(  6 -  6) =     -0.77509  eV     1   --> A'             
     e(  7 -  7) =      1.02886  eV     1   --> A'             
     e(  8 -  8) =      1.39749  eV     1   --> A'             
     e(  9 -  9) =      2.06167  eV     1   --> A'             
     e( 10 - 10) =      2.19286  eV     1   --> A''            

 **************************************************************************

 **************************************************************************

                    xk=(   0.00000,   0.25658,   0.03240  )

     Band symmetry, C_s (m)     point group:

     e(  1 -  1) =    -13.15217  eV     1   --> A'             
     e(  2 -  2) =     -9.08945  eV     1   --> A'             
     e(  3 -  3) =     -5.96315  eV     1   --> A'             
     e(  4 -  4) =     -5.72027  eV     1   --> A'             
     e(  5 -  5) =     -4.13808  eV     1   --> A''            
     e(  6 -  6) =     -0.73471  eV     1   --> A'             
     e(  7 -  7) =      0.98776  eV     1   --> A'             
     e(  8 -  8) =      1.41008  eV     1   --> A'             
     e(  9 -  9) =      2.01122  eV     1   --> A'             
     e( 10 - 10) =      2.08036  eV     1   --> A''            

 **************************************************************************

 **************************************************************************

                    xk=(   0.00000,   0.24375,   0.03564  )

     Band symmetry, C_s (m)     point group:

     e(  1 -  1) =    -13.20245  eV     1   --> A'             
     e(  2 -  2) =     -9.08340  eV     1   --> A'             
     e(  3 -  3) =     -5.93098  eV     1   --> A'             
     e(  4 -  4) =     -5.62055  eV     1   --> A'             
     e(  5 -  5) =     -4.08954  eV     1   --> A''            
     e(  6 -  6) =     -0.69408  eV     1   --> A'             
     e(  7 -  7) =      0.94423  eV     1   --> A'             
     e(  8 -  8) =      1.40983  eV     1   --> A'             
     e(  9 -  9) =      1.94860  eV     1   --> A'             
     e( 10 - 10) =      1.96539  eV     1   --> A''            

 **************************************************************************

 **************************************************************************

                    xk=(   0.00000,   0.23092,   0.03888  )

     Band symmetry, C_s (m)     point group:

     e(  1 -  1) =    -13.25037  eV     1   --> A'             
     e(  2 -  2) =     -9.07996  eV     1   --> A'             
     e(  3 -  3) =     -5.91301  eV     1   --> A'             
     e(  4 -  4) =     -5.50269  eV     1   --> A'             
     e(  5 -  5) =     -4.04033  eV     1   --> A''            
     e(  6 -  6) =     -0.65387  eV     1   --> A'             
     e(  7 -  7) =      0.89863  eV     1   --> A'             
     e(  8 -  8) =      1.39673  eV     1   --> A'             
     e(  9 -  9) =      1.84923  eV     1   --> A''            
     e( 10 - 10) =      1.87545  eV     1   --> A'             

 **************************************************************************

 **************************************************************************

                    xk=(   0.00000,   0.21809,   0.04212  )

     Band symmetry, C_s (m)     point group:

     e(  1 -  1) =    -13.29590  eV     1   --> A'             
     e(  2 -  2) =     -9.07876  eV     1   --> A'             
     e(  3 -  3) =     -5.90210  eV     1   --> A'             
     e(  4 -  4) =     -5.37441  eV     1   --> A'             
     e(  5 -  5) =     -3.99066  eV     1   --> A''            
     e(  6 -  6) =     -0.61496  eV     1   --> A'             
     e(  7 -  7) =      0.85105  eV     1   --> A'             
     e(  8 -  8) =      1.37087  eV     1   --> A'             
     e(  9 -  9) =      1.73301  eV     1   --> A''            
     e( 10 - 10) =      1.79726  eV     1   --> A'             

 **************************************************************************

 **************************************************************************

                    xk=(   0.00000,   0.20527,   0.04536  )

     Band symmetry, C_s (m)     point group:

     e(  1 -  1) =    -13.33900  eV     1   --> A'             
     e(  2 -  2) =     -9.07932  eV     1   --> A'             
     e(  3 -  3) =     -5.89498  eV     1   --> A'             
     e(  4 -  4) =     -5.23958  eV     1   --> A'             
     e(  5 -  5) =     -3.94076  eV     1   --> A''            
     e(  6 -  6) =     -0.57848  eV     1   --> A'             
     e(  7 -  7) =      0.80162  eV     1   --> A'             
     e(  8 -  8) =      1.33236  eV     1   --> A'             
     e(  9 -  9) =      1.61774  eV     1   --> A''            
     e( 10 - 10) =      1.72060  eV     1   --> A'             

 **************************************************************************

 **************************************************************************

                    xk=(   0.00000,   0.19244,   0.04860  )

     Band symmetry, C_s (m)     point group:

     e(  1 -  1) =    -13.37963  eV     1   --> A'             
     e(  2 -  2) =     -9.08131  eV     1   --> A'             
     e(  3 -  3) =     -5.89007  eV     1   --> A'             
     e(  4 -  4) =     -5.10028  eV     1   --> A'             
     e(  5 -  5) =     -3.89090  eV     1   --> A''            
     e(  6 -  6) =     -0.54592  eV     1   --> A'             
     e(  7 -  7) =      0.75047  eV     1   --> A'             
     e(  8 -  8) =      1.28196  eV     1   --> A'             
     e(  9 -  9) =      1.50435  eV     1   --> A''            
     e( 10 - 10) =      1.65098  eV     1   --> A'             

 **************************************************************************

 **************************************************************************

                    xk=(   0.00000,   0.17961,   0.05184  )

     Band symmetry, C_s (m)     point group:

     e(  1 -  1) =    -13.41776  eV     1   --> A'             
     e(  2 -  2) =     -9.08449  eV     1   --> A'             
     e(  3 -  3) =     -5.88666  eV     1   --> A'             
     e(  4 -  4) =     -4.95789  eV     1   --> A'             
     e(  5 -  5) =     -3.84137  eV     1   --> A''            
     e(  6 -  6) =     -0.51921  eV     1   --> A'             
     e(  7 -  7) =      0.69802  eV     1   --> A'             
     e(  8 -  8) =      1.22212  eV     1   --> A'             
     e(  9 -  9) =      1.39368  eV     1   --> A''            
     e( 10 - 10) =      1.59131  eV     1   --> A'             

 **************************************************************************

 **************************************************************************

                    xk=(   0.00000,   0.16678,   0.05508  )

     Band symmetry, C_s (m)     point group:

     e(  1 -  1) =    -13.45337  eV     1   --> A'             
     e(  2 -  2) =     -9.08852  eV     1   --> A'             
     e(  3 -  3) =     -5.88426  eV     1   --> A'             
     e(  4 -  4) =     -4.81346  eV     1   --> A'             
     e(  5 -  5) =     -3.79249  eV     1   --> A''            
     e(  6 -  6) =     -0.50079  eV     1   --> A'             
     e(  7 -  7) =      0.64536  eV     1   --> A'             
     e(  8 -  8) =      1.15728  eV     1   --> A'             
     e(  9 -  9) =      1.28651  eV     1   --> A''            
     e( 10 - 10) =      1.54161  eV     1   --> A'             

 **************************************************************************

 **************************************************************************

                    xk=(   0.00000,   0.15395,   0.05832  )

     Band symmetry, C_s (m)     point group:

     e(  1 -  1) =    -13.48641  eV     1   --> A'             
     e(  2 -  2) =     -9.09312  eV     1   --> A'             
     e(  3 -  3) =     -5.88261  eV     1   --> A'             
     e(  4 -  4) =     -4.66799  eV     1   --> A'             
     e(  5 -  5) =     -3.74460  eV     1   --> A''            
     e(  6 -  6) =     -0.49358  eV     1   --> A'             
     e(  7 -  7) =      0.59458  eV     1   --> A'             
     e(  8 -  8) =      1.09245  eV     1   --> A'             
     e(  9 -  9) =      1.18357  eV     1   --> A''            
     e( 10 - 10) =      1.50016  eV     1   --> A'             

 **************************************************************************

 **************************************************************************

                    xk=(   0.00000,   0.14112,   0.06156  )

     Band symmetry, C_s (m)     point group:

     e(  1 -  1) =    -13.51690  eV     1   --> A'             
     e(  2 -  2) =     -9.09811  eV     1   --> A'             
     e(  3 -  3) =     -5.88155  eV     1   --> A'             
     e(  4 -  4) =     -4.52244  eV     1   --> A'             
     e(  5 -  5) =     -3.69810  eV     1   --> A''            
     e(  6 -  6) =     -0.50064  eV     1   --> A'             
     e(  7 -  7) =      0.54871  eV     1   --> A'             
     e(  8 -  8) =      1.03154  eV     1   --> A'             
     e(  9 -  9) =      1.08555  eV     1   --> A''            
     e( 10 - 10) =      1.46496  eV     1   --> A'             

 **************************************************************************

 **************************************************************************

                    xk=(   0.00000,   0.12829,   0.06480  )

     Band symmetry, C_s (m)     point group:

     e(  1 -  1) =    -13.54478  eV     1   --> A'             
     e(  2 -  2) =     -9.10327  eV     1   --> A'             
     e(  3 -  3) =     -5.88089  eV     1   --> A'             
     e(  4 -  4) =     -4.37787  eV     1   --> A'             
     e(  5 -  5) =     -3.65339  eV     1   --> A''            
     e(  6 -  6) =     -0.52448  eV     1   --> A'             
     e(  7 -  7) =      0.51116  eV     1   --> A'             
     e(  8 -  8) =      0.97683  eV     1   --> A'             
     e(  9 -  9) =      0.99313  eV     1   --> A''            
     e( 10 - 10) =      1.43448  eV     1   --> A'             

 **************************************************************************

 **************************************************************************

                    xk=(   0.00000,   0.11546,   0.06804  )

     Band symmetry, C_s (m)     point group:

     e(  1 -  1) =    -13.57006  eV     1   --> A'             
     e(  2 -  2) =     -9.10835  eV     1   --> A'             
     e(  3 -  3) =     -5.88053  eV     1   --> A'             
     e(  4 -  4) =     -4.23548  eV     1   --> A'             
     e(  5 -  5) =     -3.61090  eV     1   --> A''            
     e(  6 -  6) =     -0.56605  eV     1   --> A'             
     e(  7 -  7) =      0.48455  eV     1   --> A'             
     e(  8 -  8) =      0.90696  eV     1   --> A''            
     e(  9 -  9) =      0.92913  eV     1   --> A'             
     e( 10 - 10) =      1.40768  eV     1   --> A'             

 **************************************************************************

 **************************************************************************

                    xk=(   0.00000,   0.10263,   0.07128  )

     Band symmetry, C_s (m)     point group:

     e(  1 -  1) =    -13.59272  eV     1   --> A'             
     e(  2 -  2) =     -9.11328  eV     1   --> A'             
     e(  3 -  3) =     -5.88041  eV     1   --> A'             
     e(  4 -  4) =     -4.09669  eV     1   --> A'             
     e(  5 -  5) =     -3.57110  eV     1   --> A''            
     e(  6 -  6) =     -0.62405  eV     1   --> A'             
     e(  7 -  7) =      0.46965  eV     1   --> A'             
     e(  8 -  8) =      0.82768  eV     1   --> A''            
     e(  9 -  9) =      0.88837  eV     1   --> A'             
     e( 10 - 10) =      1.38392  eV     1   --> A'             

 **************************************************************************

 **************************************************************************

                    xk=(   0.00000,   0.08980,   0.07452  )

     Band symmetry, C_s (m)     point group:

     e(  1 -  1) =    -13.61273  eV     1   --> A'             
     e(  2 -  2) =     -9.11789  eV     1   --> A'             
     e(  3 -  3) =     -5.88046  eV     1   --> A'             
     e(  4 -  4) =     -3.96321  eV     1   --> A'             
     e(  5 -  5) =     -3.53446  eV     1   --> A''            
     e(  6 -  6) =     -0.69496  eV     1   --> A'             
     e(  7 -  7) =      0.46528  eV     1   --> A'             
     e(  8 -  8) =      0.75590  eV     1   --> A''            
     e(  9 -  9) =      0.85406  eV     1   --> A'             
     e( 10 - 10) =      1.36281  eV     1   --> A'             

 **************************************************************************

 **************************************************************************

                    xk=(   0.00000,   0.07697,   0.07776  )

     Band symmetry, C_s (m)     point group:

     e(  1 -  1) =    -13.63010  eV     1   --> A'             
     e(  2 -  2) =     -9.12211  eV     1   --> A'             
     e(  3 -  3) =     -5.88064  eV     1   --> A'             
     e(  4 -  4) =     -3.83715  eV     1   --> A'             
     e(  5 -  5) =     -3.50146  eV     1   --> A''            
     e(  6 -  6) =     -0.77380  eV     1   --> A'             
     e(  7 -  7) =      0.46895  eV     1   --> A'             
     e(  8 -  8) =      0.69224  eV     1   --> A''            
     e(  9 -  9) =      0.82563  eV     1   --> A'             
     e( 10 - 10) =      1.34416  eV     1   --> A'             

 **************************************************************************

 **************************************************************************

                    xk=(   0.00000,   0.06415,   0.08100  )

     Band symmetry, C_s (m)     point group:

     e(  1 -  1) =    -13.64482  eV     1   --> A'             
     e(  2 -  2) =     -9.12586  eV     1   --> A'             
     e(  3 -  3) =     -5.88089  eV     1   --> A'             
     e(  4 -  4) =     -3.72110  eV     1   --> A'             
     e(  5 -  5) =     -3.47257  eV     1   --> A''            
     e(  6 -  6) =     -0.85495  eV     1   --> A'             
     e(  7 -  7) =      0.47772  eV     1   --> A'             
     e(  8 -  8) =      0.63725  eV     1   --> A''            
     e(  9 -  9) =      0.80254  eV     1   --> A'             
     e( 10 - 10) =      1.32795  eV     1   --> A'             

 **************************************************************************

 **************************************************************************

                    xk=(   0.00000,   0.05132,   0.08424  )

     Band symmetry, C_s (m)     point group:

     e(  1 -  1) =    -13.65687  eV     1   --> A'             
     e(  2 -  2) =     -9.12903  eV     1   --> A'             
     e(  3 -  3) =     -5.88115  eV     1   --> A'             
     e(  4 -  4) =     -3.61818  eV     1   --> A'             
     e(  5 -  5) =     -3.44822  eV     1   --> A''            
     e(  6 -  6) =     -0.93259  eV     1   --> A'             
     e(  7 -  7) =      0.48882  eV     1   --> A'             
     e(  8 -  8) =      0.59145  eV     1   --> A''            
     e(  9 -  9) =      0.78434  eV     1   --> A'             
     e( 10 - 10) =      1.31425  eV     1   --> A'             

 **************************************************************************

 **************************************************************************

                    xk=(   0.00000,   0.03849,   0.08748  )

     Band symmetry, C_s (m)     point group:

     e(  1 -  1) =    -13.66625  eV     1   --> A'             
     e(  2 -  2) =     -9.13157  eV     1   --> A'             
     e(  3 -  3) =     -5.88140  eV     1   --> A'             
     e(  4 -  4) =     -3.53203  eV     1   --> A'             
     e(  5 -  5) =     -3.42883  eV     1   --> A''            
     e(  6 -  6) =     -1.00102  eV     1   --> A'             
     e(  7 -  7) =      0.49988  eV     1   --> A'             
     e(  8 -  8) =      0.55531  eV     1   --> A''            
     e(  9 -  9) =      0.77065  eV     1   --> A'             
     e( 10 - 10) =      1.30323  eV     1   --> A'             

 **************************************************************************

 **************************************************************************

                    xk=(   0.00000,   0.02566,   0.09072  )

     Band symmetry, C_s (m)     point group:

     e(  1 -  1) =    -13.67296  eV     1   --> A'             
     e(  2 -  2) =     -9.13341  eV     1   --> A'             
     e(  3 -  3) =     -5.88160  eV     1   --> A'             
     e(  4 -  4) =     -3.46656  eV     1   --> A'             
     e(  5 -  5) =     -3.41472  eV     1   --> A''            
     e(  6 -  6) =     -1.05481  eV     1   --> A'             
     e(  7 -  7) =      0.50906  eV     1   --> A'             
     e(  8 -  8) =      0.52920  eV     1   --> A''            
     e(  9 -  9) =      0.76115  eV     1   --> A'             
     e( 10 - 10) =      1.29511  eV     1   --> A'             

 **************************************************************************

 **************************************************************************

                    xk=(   0.00000,   0.01283,   0.09396  )

     Band symmetry, C_s (m)     point group:

     e(  1 -  1) =    -13.67699  eV     1   --> A'             
     e(  2 -  2) =     -9.13455  eV     1   --> A'             
     e(  3 -  3) =     -5.88177  eV     1   --> A'             
     e(  4 -  4) =     -3.42546  eV     1   --> A'             
     e(  5 -  5) =     -3.40614  eV     1   --> A''            
     e(  6 -  6) =     -1.08928  eV     1   --> A'             
     e(  7 -  7) =      0.51342  eV     1   --> A''            
     e(  8 -  8) =      0.51508  eV     1   --> A'             
     e(  9 -  9) =      0.75557  eV     1   --> A'             
     e( 10 - 10) =      1.29012  eV     1   --> A'             

 **************************************************************************

 **************************************************************************

                    xk=(   0.00000,   0.00000,   0.09720  )

     Band symmetry, C_s (m)     point group:

     e(  1 -  1) =    -13.67833  eV     1   --> A'             
     e(  2 -  2) =     -9.13490  eV     1   --> A'             
     e(  3 -  3) =     -5.88182  eV     1   --> A'             
     e(  4 -  4) =     -3.41142  eV     1   --> A'             
     e(  5 -  5) =     -3.40327  eV     1   --> A''            
     e(  6 -  6) =     -1.10116  eV     1   --> A'             
     e(  7 -  7) =      0.50814  eV     1   --> A''            
     e(  8 -  8) =      0.51717  eV     1   --> A'             
     e(  9 -  9) =      0.75373  eV     1   --> A'             
     e( 10 - 10) =      1.28844  eV     1   --> A'             

 **************************************************************************
 
     BANDS        :     10.81s CPU     13.32s WALL

 
   This run was terminated on:  21:20:48  31Mar2021            

=------------------------------------------------------------------------------=
   JOB DONE.
=------------------------------------------------------------------------------=
