
     Program BANDS v.6.6 starts on  2Apr2021 at  0:12: 7 

     This program is part of the open-source Quantum ESPRESSO suite
     for quantum simulation of materials; please cite
         "P. Giannozzi et al., J. Phys.:Condens. Matter 21 395502 (2009);
         "P. Giannozzi et al., J. Phys.:Condens. Matter 29 465901 (2017);
          URL http://www.quantum-espresso.org", 
     in publications or presentations arising from this work. More details at
     http://www.quantum-espresso.org/quote

     Parallel version (MPI), running on     1 processors

     MPI processes distributed on     1 nodes
     Fft bands division:     nmany     =       1

     Reading xml data from directory:

     /home/jesus/Documentos/Nanociencia_DFT/silicano.save/

     IMPORTANT: XC functional enforced from input :
     Exchange-correlation= PBE
                           (   1   4   3   4   0   0   0)
     Any further DFT definition will be discarded
     Please, verify this is what you really want

 
     G-vector sticks info
     --------------------
     sticks:   dense  smooth     PW     G-vecs:    dense   smooth      PW
     Sum         769     511    151                90847    49469    7907
 

     negative rho (up, down):  1.022E-04 0.000E+00
     Reading collected, re-writing distributed wavefunctions
     high-symmetry point:  0.0000 0.0000 0.0000   x coordinate   0.0000
     high-symmetry point:  0.5000 0.2887 0.0000   x coordinate   0.5774
     high-symmetry point:  0.0000 0.3849 0.0000   x coordinate   1.0865
     high-symmetry point:  0.0000 0.0000 0.0972   x coordinate   1.4835

     Plottable bands (eV) written to file silicano_bands.gnu
     Bands written to file silicano_bands

 **************************************************************************

                    xk=(   0.00000,   0.00000,   0.00000  )

     point group C_s (m)    
     there are  2 classes
     the character table:

       E     s    
A'     1.00  1.00
A''    1.00 -1.00

     the symmetry operations in each class and the name of the first element:

     E        1
                                                                 
     s        2
                                                                 

     Band symmetry, C_s (m)     point group:

     e(  1 -  1) =    -13.69247  eV     1   --> A'             
     e(  2 -  2) =     -9.14844  eV     1   --> A'             
     e(  3 -  3) =     -5.88067  eV     1   --> A'             
     e(  4 -  4) =     -3.38918  eV     1   --> A'             
     e(  5 -  5) =     -3.38072  eV     1   --> A''            
     e(  6 -  6) =     -1.06232  eV     1   --> A'             
     e(  7 -  7) =      0.53459  eV     1   --> A''            
     e(  8 -  8) =      0.54392  eV     1   --> A'             
     e(  9 -  9) =      0.79329  eV     1   --> A'             
     e( 10 - 10) =      1.21461  eV     1   --> A'             

 **************************************************************************

 **************************************************************************

                    xk=(   0.01667,   0.00962,   0.00000  )

     point group C_1 (1)    
     there are  1 classes
     the character table:

       E    
A      1.00

     the symmetry operations in each class and the name of the first element:

     E        1
                                                                 

     Band symmetry, C_1 (1)     point group:

     e(  1 -  1) =    -13.68945  eV     1   --> A              
     e(  2 -  2) =     -9.14766  eV     1   --> A              
     e(  3 -  3) =     -5.88070  eV     1   --> A              
     e(  4 -  4) =     -3.41491  eV     1   --> A              
     e(  5 -  5) =     -3.39293  eV     1   --> A              
     e(  6 -  6) =     -1.03594  eV     1   --> A              
     e(  7 -  7) =      0.53154  eV     1   --> A              
     e(  8 -  8) =      0.55424  eV     1   --> A              
     e(  9 -  9) =      0.79740  eV     1   --> A              
     e( 10 - 10) =      1.21904  eV     1   --> A              

 **************************************************************************

 **************************************************************************

                    xk=(   0.03333,   0.01925,   0.00000  )

     Band symmetry, C_1 (1)     point group:

     e(  1 -  1) =    -13.68037  eV     1   --> A              
     e(  2 -  2) =     -9.14517  eV     1   --> A              
     e(  3 -  3) =     -5.88045  eV     1   --> A              
     e(  4 -  4) =     -3.50403  eV     1   --> A              
     e(  5 -  5) =     -3.41259  eV     1   --> A              
     e(  6 -  6) =     -0.96248  eV     1   --> A              
     e(  7 -  7) =      0.51946  eV     1   --> A              
     e(  8 -  8) =      0.58919  eV     1   --> A              
     e(  9 -  9) =      0.81012  eV     1   --> A              
     e( 10 - 10) =      1.23205  eV     1   --> A              

 **************************************************************************

 **************************************************************************

                    xk=(   0.05000,   0.02887,   0.00000  )

     Band symmetry, C_1 (1)     point group:

     e(  1 -  1) =    -13.66524  eV     1   --> A              
     e(  2 -  2) =     -9.14106  eV     1   --> A              
     e(  3 -  3) =     -5.88009  eV     1   --> A              
     e(  4 -  4) =     -3.64023  eV     1   --> A              
     e(  5 -  5) =     -3.44375  eV     1   --> A              
     e(  6 -  6) =     -0.85650  eV     1   --> A              
     e(  7 -  7) =      0.50305  eV     1   --> A              
     e(  8 -  8) =      0.64718  eV     1   --> A              
     e(  9 -  9) =      0.83233  eV     1   --> A              
     e( 10 - 10) =      1.25283  eV     1   --> A              

 **************************************************************************

 **************************************************************************

                    xk=(   0.06667,   0.03849,   0.00000  )

     Band symmetry, C_1 (1)     point group:

     e(  1 -  1) =    -13.64407  eV     1   --> A              
     e(  2 -  2) =     -9.13550  eV     1   --> A              
     e(  3 -  3) =     -5.87974  eV     1   --> A              
     e(  4 -  4) =     -3.81030  eV     1   --> A              
     e(  5 -  5) =     -3.48560  eV     1   --> A              
     e(  6 -  6) =     -0.73661  eV     1   --> A              
     e(  7 -  7) =      0.48942  eV     1   --> A              
     e(  8 -  8) =      0.72656  eV     1   --> A              
     e(  9 -  9) =      0.86522  eV     1   --> A              
     e( 10 - 10) =      1.28053  eV     1   --> A              

 **************************************************************************

 **************************************************************************

                    xk=(   0.08333,   0.04811,   0.00000  )

     Band symmetry, C_1 (1)     point group:

     e(  1 -  1) =    -13.61690  eV     1   --> A              
     e(  2 -  2) =     -9.12874  eV     1   --> A              
     e(  3 -  3) =     -5.87944  eV     1   --> A              
     e(  4 -  4) =     -4.00318  eV     1   --> A              
     e(  5 -  5) =     -3.53670  eV     1   --> A              
     e(  6 -  6) =     -0.62248  eV     1   --> A              
     e(  7 -  7) =      0.48780  eV     1   --> A              
     e(  8 -  8) =      0.82555  eV     1   --> A              
     e(  9 -  9) =      0.91034  eV     1   --> A              
     e( 10 - 10) =      1.31455  eV     1   --> A              

 **************************************************************************

 **************************************************************************

                    xk=(   0.10000,   0.05774,   0.00000  )

     Band symmetry, C_1 (1)     point group:

     e(  1 -  1) =    -13.58376  eV     1   --> A              
     e(  2 -  2) =     -9.12116  eV     1   --> A              
     e(  3 -  3) =     -5.87950  eV     1   --> A              
     e(  4 -  4) =     -4.21051  eV     1   --> A              
     e(  5 -  5) =     -3.59548  eV     1   --> A              
     e(  6 -  6) =     -0.53262  eV     1   --> A              
     e(  7 -  7) =      0.50768  eV     1   --> A              
     e(  8 -  8) =      0.94220  eV     1   --> A              
     e(  9 -  9) =      0.96954  eV     1   --> A              
     e( 10 - 10) =      1.35485  eV     1   --> A              

 **************************************************************************

 **************************************************************************

                    xk=(   0.11667,   0.06736,   0.00000  )

     Band symmetry, C_1 (1)     point group:

     e(  1 -  1) =    -13.54469  eV     1   --> A              
     e(  2 -  2) =     -9.11316  eV     1   --> A              
     e(  3 -  3) =     -5.88012  eV     1   --> A              
     e(  4 -  4) =     -4.42611  eV     1   --> A              
     e(  5 -  5) =     -3.66032  eV     1   --> A              
     e(  6 -  6) =     -0.47971  eV     1   --> A              
     e(  7 -  7) =      0.55377  eV     1   --> A              
     e(  8 -  8) =      1.04435  eV     1   --> A              
     e(  9 -  9) =      1.07442  eV     1   --> A              
     e( 10 - 10) =      1.40220  eV     1   --> A              

 **************************************************************************

 **************************************************************************

                    xk=(   0.13333,   0.07698,   0.00000  )

     Band symmetry, C_1 (1)     point group:

     e(  1 -  1) =    -13.49976  eV     1   --> A              
     e(  2 -  2) =     -9.10528  eV     1   --> A              
     e(  3 -  3) =     -5.88167  eV     1   --> A              
     e(  4 -  4) =     -4.64536  eV     1   --> A              
     e(  5 -  5) =     -3.72970  eV     1   --> A              
     e(  6 -  6) =     -0.46569  eV     1   --> A              
     e(  7 -  7) =      0.62144  eV     1   --> A              
     e(  8 -  8) =      1.13378  eV     1   --> A              
     e(  9 -  9) =      1.22001  eV     1   --> A              
     e( 10 - 10) =      1.45909  eV     1   --> A              

 **************************************************************************

 **************************************************************************

                    xk=(   0.15000,   0.08661,   0.00000  )

     Band symmetry, C_1 (1)     point group:

     e(  1 -  1) =    -13.44899  eV     1   --> A              
     e(  2 -  2) =     -9.09809  eV     1   --> A              
     e(  3 -  3) =     -5.88432  eV     1   --> A              
     e(  4 -  4) =     -4.86455  eV     1   --> A              
     e(  5 -  5) =     -3.80221  eV     1   --> A              
     e(  6 -  6) =     -0.48317  eV     1   --> A              
     e(  7 -  7) =      0.69986  eV     1   --> A              
     e(  8 -  8) =      1.23024  eV     1   --> A              
     e(  9 -  9) =      1.37671  eV     1   --> A              
     e( 10 - 10) =      1.53097  eV     1   --> A              

 **************************************************************************

 **************************************************************************

                    xk=(   0.16667,   0.09623,   0.00000  )

     Band symmetry, C_1 (1)     point group:

     e(  1 -  1) =    -13.39251  eV     1   --> A              
     e(  2 -  2) =     -9.09252  eV     1   --> A              
     e(  3 -  3) =     -5.88910  eV     1   --> A              
     e(  4 -  4) =     -5.08036  eV     1   --> A              
     e(  5 -  5) =     -3.87656  eV     1   --> A              
     e(  6 -  6) =     -0.52202  eV     1   --> A              
     e(  7 -  7) =      0.77974  eV     1   --> A              
     e(  8 -  8) =      1.31832  eV     1   --> A              
     e(  9 -  9) =      1.54210  eV     1   --> A              
     e( 10 - 10) =      1.62540  eV     1   --> A              

 **************************************************************************

 **************************************************************************

                    xk=(   0.18333,   0.10585,   0.00000  )

     Band symmetry, C_1 (1)     point group:

     e(  1 -  1) =    -13.33038  eV     1   --> A              
     e(  2 -  2) =     -9.08938  eV     1   --> A              
     e(  3 -  3) =     -5.89725  eV     1   --> A              
     e(  4 -  4) =     -5.28924  eV     1   --> A              
     e(  5 -  5) =     -3.95167  eV     1   --> A              
     e(  6 -  6) =     -0.57369  eV     1   --> A              
     e(  7 -  7) =      0.85669  eV     1   --> A              
     e(  8 -  8) =      1.38407  eV     1   --> A              
     e(  9 -  9) =      1.71352  eV     1   --> A              
     e( 10 - 10) =      1.74336  eV     1   --> A              

 **************************************************************************

 **************************************************************************

                    xk=(   0.20000,   0.11547,   0.00000  )

     Band symmetry, C_1 (1)     point group:

     e(  1 -  1) =    -13.26271  eV     1   --> A              
     e(  2 -  2) =     -9.08978  eV     1   --> A              
     e(  3 -  3) =     -5.91185  eV     1   --> A              
     e(  4 -  4) =     -5.48599  eV     1   --> A              
     e(  5 -  5) =     -4.02657  eV     1   --> A              
     e(  6 -  6) =     -0.63216  eV     1   --> A              
     e(  7 -  7) =      0.92950  eV     1   --> A              
     e(  8 -  8) =      1.42345  eV     1   --> A              
     e(  9 -  9) =      1.87225  eV     1   --> A              
     e( 10 - 10) =      1.88859  eV     1   --> A              

 **************************************************************************

 **************************************************************************

                    xk=(   0.21667,   0.12510,   0.00000  )

     Band symmetry, C_1 (1)     point group:

     e(  1 -  1) =    -13.18963  eV     1   --> A              
     e(  2 -  2) =     -9.09509  eV     1   --> A              
     e(  3 -  3) =     -5.94255  eV     1   --> A              
     e(  4 -  4) =     -5.65920  eV     1   --> A              
     e(  5 -  5) =     -4.10043  eV     1   --> A              
     e(  6 -  6) =     -0.69338  eV     1   --> A              
     e(  7 -  7) =      0.99780  eV     1   --> A              
     e(  8 -  8) =      1.43625  eV     1   --> A              
     e(  9 -  9) =      1.99564  eV     1   --> A              
     e( 10 - 10) =      2.06278  eV     1   --> A              

 **************************************************************************

 **************************************************************************

                    xk=(   0.23333,   0.13472,   0.00000  )

     Band symmetry, C_1 (1)     point group:

     e(  1 -  1) =    -13.11131  eV     1   --> A              
     e(  2 -  2) =     -9.10672  eV     1   --> A              
     e(  3 -  3) =     -6.01476  eV     1   --> A              
     e(  4 -  4) =     -5.78161  eV     1   --> A              
     e(  5 -  5) =     -4.17255  eV     1   --> A              
     e(  6 -  6) =     -0.75463  eV     1   --> A              
     e(  7 -  7) =      1.06085  eV     1   --> A              
     e(  8 -  8) =      1.42167  eV     1   --> A              
     e(  9 -  9) =      2.09409  eV     1   --> A              
     e( 10 - 10) =      2.23284  eV     1   --> A              

 **************************************************************************

 **************************************************************************

                    xk=(   0.25000,   0.14434,   0.00000  )

     Band symmetry, C_1 (1)     point group:

     e(  1 -  1) =    -13.02793  eV     1   --> A              
     e(  2 -  2) =     -9.12621  eV     1   --> A              
     e(  3 -  3) =     -6.13905  eV     1   --> A              
     e(  4 -  4) =     -5.84064  eV     1   --> A              
     e(  5 -  5) =     -4.24235  eV     1   --> A              
     e(  6 -  6) =     -0.81404  eV     1   --> A              
     e(  7 -  7) =      1.11649  eV     1   --> A              
     e(  8 -  8) =      1.38115  eV     1   --> A              
     e(  9 -  9) =      2.15884  eV     1   --> A              
     e( 10 - 10) =      2.34903  eV     1   --> A              

 **************************************************************************

 **************************************************************************

                    xk=(   0.26667,   0.15396,   0.00000  )

     Band symmetry, C_1 (1)     point group:

     e(  1 -  1) =    -12.93971  eV     1   --> A              
     e(  2 -  2) =     -9.15513  eV     1   --> A              
     e(  3 -  3) =     -6.28005  eV     1   --> A              
     e(  4 -  4) =     -5.86995  eV     1   --> A              
     e(  5 -  5) =     -4.30931  eV     1   --> A              
     e(  6 -  6) =     -0.87035  eV     1   --> A              
     e(  7 -  7) =      1.15778  eV     1   --> A              
     e(  8 -  8) =      1.32426  eV     1   --> A              
     e(  9 -  9) =      2.20933  eV     1   --> A              
     e( 10 - 10) =      2.45368  eV     1   --> A              

 **************************************************************************

 **************************************************************************

                    xk=(   0.28333,   0.16359,   0.00000  )

     Band symmetry, C_1 (1)     point group:

     e(  1 -  1) =    -12.84693  eV     1   --> A              
     e(  2 -  2) =     -9.19497  eV     1   --> A              
     e(  3 -  3) =     -6.41493  eV     1   --> A              
     e(  4 -  4) =     -5.89053  eV     1   --> A              
     e(  5 -  5) =     -4.37301  eV     1   --> A              
     e(  6 -  6) =     -0.92267  eV     1   --> A              
     e(  7 -  7) =      1.15586  eV     1   --> A              
     e(  8 -  8) =      1.28520  eV     1   --> A              
     e(  9 -  9) =      2.26386  eV     1   --> A              
     e( 10 - 10) =      2.56811  eV     1   --> A              

 **************************************************************************

 **************************************************************************

                    xk=(   0.30000,   0.17321,   0.00000  )

     Band symmetry, C_1 (1)     point group:

     e(  1 -  1) =    -12.74996  eV     1   --> A              
     e(  2 -  2) =     -9.24676  eV     1   --> A              
     e(  3 -  3) =     -6.53594  eV     1   --> A              
     e(  4 -  4) =     -5.90904  eV     1   --> A              
     e(  5 -  5) =     -4.43309  eV     1   --> A              
     e(  6 -  6) =     -0.97043  eV     1   --> A              
     e(  7 -  7) =      1.08635  eV     1   --> A              
     e(  8 -  8) =      1.29449  eV     1   --> A              
     e(  9 -  9) =      2.32898  eV     1   --> A              
     e( 10 - 10) =      2.68915  eV     1   --> A              

 **************************************************************************

 **************************************************************************

                    xk=(   0.31667,   0.18283,   0.00000  )

     Band symmetry, C_1 (1)     point group:

     e(  1 -  1) =    -12.64920  eV     1   --> A              
     e(  2 -  2) =     -9.31103  eV     1   --> A              
     e(  3 -  3) =     -6.64010  eV     1   --> A              
     e(  4 -  4) =     -5.92736  eV     1   --> A              
     e(  5 -  5) =     -4.48924  eV     1   --> A              
     e(  6 -  6) =     -1.01329  eV     1   --> A              
     e(  7 -  7) =      0.99067  eV     1   --> A              
     e(  8 -  8) =      1.31627  eV     1   --> A              
     e(  9 -  9) =      2.40643  eV     1   --> A              
     e( 10 - 10) =      2.81671  eV     1   --> A              

 **************************************************************************

 **************************************************************************

                    xk=(   0.33333,   0.19246,   0.00000  )

     Band symmetry, C_1 (1)     point group:

     e(  1 -  1) =    -12.54521  eV     1   --> A              
     e(  2 -  2) =     -9.38765  eV     1   --> A              
     e(  3 -  3) =     -6.72656  eV     1   --> A              
     e(  4 -  4) =     -5.94630  eV     1   --> A              
     e(  5 -  5) =     -4.54121  eV     1   --> A              
     e(  6 -  6) =     -1.05108  eV     1   --> A              
     e(  7 -  7) =      0.88951  eV     1   --> A              
     e(  8 -  8) =      1.33460  eV     1   --> A              
     e(  9 -  9) =      2.49647  eV     1   --> A              
     e( 10 - 10) =      2.92302  eV     1   --> A              

 **************************************************************************

 **************************************************************************

                    xk=(   0.35000,   0.20208,   0.00000  )

     Band symmetry, C_1 (1)     point group:

     e(  1 -  1) =    -12.43870  eV     1   --> A              
     e(  2 -  2) =     -9.47551  eV     1   --> A              
     e(  3 -  3) =     -6.79562  eV     1   --> A              
     e(  4 -  4) =     -5.96600  eV     1   --> A              
     e(  5 -  5) =     -4.58878  eV     1   --> A              
     e(  6 -  6) =     -1.08380  eV     1   --> A              
     e(  7 -  7) =      0.78961  eV     1   --> A              
     e(  8 -  8) =      1.34698  eV     1   --> A              
     e(  9 -  9) =      2.59873  eV     1   --> A              
     e( 10 - 10) =      2.96588  eV     1   --> A              

 **************************************************************************

 **************************************************************************

                    xk=(   0.36667,   0.21170,   0.00000  )

     Band symmetry, C_1 (1)     point group:

     e(  1 -  1) =    -12.33061  eV     1   --> A              
     e(  2 -  2) =     -9.57275  eV     1   --> A              
     e(  3 -  3) =     -6.84852  eV     1   --> A              
     e(  4 -  4) =     -5.98627  eV     1   --> A              
     e(  5 -  5) =     -4.63176  eV     1   --> A              
     e(  6 -  6) =     -1.11158  eV     1   --> A              
     e(  7 -  7) =      0.69448  eV     1   --> A              
     e(  8 -  8) =      1.35371  eV     1   --> A              
     e(  9 -  9) =      2.71249  eV     1   --> A              
     e( 10 - 10) =      2.99363  eV     1   --> A              

 **************************************************************************

 **************************************************************************

                    xk=(   0.38333,   0.22132,   0.00000  )

     Band symmetry, C_1 (1)     point group:

     e(  1 -  1) =    -12.22217  eV     1   --> A              
     e(  2 -  2) =     -9.67675  eV     1   --> A              
     e(  3 -  3) =     -6.88720  eV     1   --> A              
     e(  4 -  4) =     -6.00662  eV     1   --> A              
     e(  5 -  5) =     -4.67000  eV     1   --> A              
     e(  6 -  6) =     -1.13467  eV     1   --> A              
     e(  7 -  7) =      0.60642  eV     1   --> A              
     e(  8 -  8) =      1.35584  eV     1   --> A              
     e(  9 -  9) =      2.83688  eV     1   --> A              
     e( 10 - 10) =      3.01016  eV     1   --> A              

 **************************************************************************

 **************************************************************************

                    xk=(   0.40000,   0.23095,   0.00000  )

     Band symmetry, C_1 (1)     point group:

     e(  1 -  1) =    -12.11511  eV     1   --> A              
     e(  2 -  2) =     -9.78412  eV     1   --> A              
     e(  3 -  3) =     -6.91392  eV     1   --> A              
     e(  4 -  4) =     -6.02666  eV     1   --> A              
     e(  5 -  5) =     -4.70338  eV     1   --> A              
     e(  6 -  6) =     -1.15339  eV     1   --> A              
     e(  7 -  7) =      0.52712  eV     1   --> A              
     e(  8 -  8) =      1.35467  eV     1   --> A              
     e(  9 -  9) =      2.97097  eV     1   --> A              
     e( 10 - 10) =      3.01885  eV     1   --> A              

 **************************************************************************

 **************************************************************************

                    xk=(   0.41667,   0.24057,   0.00000  )

     Band symmetry, C_1 (1)     point group:

     e(  1 -  1) =    -12.01183  eV     1   --> A              
     e(  2 -  2) =     -9.89093  eV     1   --> A              
     e(  3 -  3) =     -6.93120  eV     1   --> A              
     e(  4 -  4) =     -6.04570  eV     1   --> A              
     e(  5 -  5) =     -4.73178  eV     1   --> A              
     e(  6 -  6) =     -1.16816  eV     1   --> A              
     e(  7 -  7) =      0.45788  eV     1   --> A              
     e(  8 -  8) =      1.35140  eV     1   --> A              
     e(  9 -  9) =      3.02240  eV     1   --> A              
     e( 10 - 10) =      3.11387  eV     1   --> A              

 **************************************************************************

 **************************************************************************

                    xk=(   0.43333,   0.25019,   0.00000  )

     Band symmetry, C_1 (1)     point group:

     e(  1 -  1) =    -11.91553  eV     1   --> A              
     e(  2 -  2) =     -9.99229  eV     1   --> A              
     e(  3 -  3) =     -6.94133  eV     1   --> A              
     e(  4 -  4) =     -6.06285  eV     1   --> A              
     e(  5 -  5) =     -4.75514  eV     1   --> A              
     e(  6 -  6) =     -1.17940  eV     1   --> A              
     e(  7 -  7) =      0.39978  eV     1   --> A              
     e(  8 -  8) =      1.34725  eV     1   --> A              
     e(  9 -  9) =      3.02293  eV     1   --> A              
     e( 10 - 10) =      3.26468  eV     1   --> A              

 **************************************************************************

 **************************************************************************

                    xk=(   0.45000,   0.25982,   0.00000  )

     Band symmetry, C_1 (1)     point group:

     e(  1 -  1) =    -11.83069  eV     1   --> A              
     e(  2 -  2) =    -10.08242  eV     1   --> A              
     e(  3 -  3) =     -6.94654  eV     1   --> A              
     e(  4 -  4) =     -6.07734  eV     1   --> A              
     e(  5 -  5) =     -4.77336  eV     1   --> A              
     e(  6 -  6) =     -1.18756  eV     1   --> A              
     e(  7 -  7) =      0.35369  eV     1   --> A              
     e(  8 -  8) =      1.34313  eV     1   --> A              
     e(  9 -  9) =      3.02194  eV     1   --> A              
     e( 10 - 10) =      3.42256  eV     1   --> A              

 **************************************************************************

 **************************************************************************

                    xk=(   0.46667,   0.26944,   0.00000  )

     Band symmetry, C_1 (1)     point group:

     e(  1 -  1) =    -11.76295  eV     1   --> A              
     e(  2 -  2) =    -10.15472  eV     1   --> A              
     e(  3 -  3) =     -6.94884  eV     1   --> A              
     e(  4 -  4) =     -6.08841  eV     1   --> A              
     e(  5 -  5) =     -4.78642  eV     1   --> A              
     e(  6 -  6) =     -1.19306  eV     1   --> A              
     e(  7 -  7) =      0.32026  eV     1   --> A              
     e(  8 -  8) =      1.33963  eV     1   --> A              
     e(  9 -  9) =      3.02054  eV     1   --> A              
     e( 10 - 10) =      3.58659  eV     1   --> A              

 **************************************************************************

 **************************************************************************

                    xk=(   0.48333,   0.27906,   0.00000  )

     Band symmetry, C_1 (1)     point group:

     e(  1 -  1) =    -11.71864  eV     1   --> A              
     e(  2 -  2) =    -10.20207  eV     1   --> A              
     e(  3 -  3) =     -6.94961  eV     1   --> A              
     e(  4 -  4) =     -6.09534  eV     1   --> A              
     e(  5 -  5) =     -4.79427  eV     1   --> A              
     e(  6 -  6) =     -1.19622  eV     1   --> A              
     e(  7 -  7) =      0.30000  eV     1   --> A              
     e(  8 -  8) =      1.33732  eV     1   --> A              
     e(  9 -  9) =      3.01942  eV     1   --> A              
     e( 10 - 10) =      3.75560  eV     1   --> A              

 **************************************************************************

 **************************************************************************

                    xk=(   0.50000,   0.28868,   0.00000  )

     Band symmetry, C_1 (1)     point group:

     e(  1 -  1) =    -11.70316  eV     1   --> A              
     e(  2 -  2) =    -10.21864  eV     1   --> A              
     e(  3 -  3) =     -6.94979  eV     1   --> A              
     e(  4 -  4) =     -6.09775  eV     1   --> A              
     e(  5 -  5) =     -4.79688  eV     1   --> A              
     e(  6 -  6) =     -1.19724  eV     1   --> A              
     e(  7 -  7) =      0.29319  eV     1   --> A              
     e(  8 -  8) =      1.33649  eV     1   --> A              
     e(  9 -  9) =      3.01901  eV     1   --> A              
     e( 10 - 10) =      3.93362  eV     1   --> A              

 **************************************************************************

 **************************************************************************

                    xk=(   0.48333,   0.29189,   0.00000  )

     Band symmetry, C_1 (1)     point group:

     e(  1 -  1) =    -11.70907  eV     1   --> A              
     e(  2 -  2) =    -10.21149  eV     1   --> A              
     e(  3 -  3) =     -6.94914  eV     1   --> A              
     e(  4 -  4) =     -6.09688  eV     1   --> A              
     e(  5 -  5) =     -4.80276  eV     1   --> A              
     e(  6 -  6) =     -1.18655  eV     1   --> A              
     e(  7 -  7) =      0.29702  eV     1   --> A              
     e(  8 -  8) =      1.33720  eV     1   --> A              
     e(  9 -  9) =      3.00798  eV     1   --> A              
     e( 10 - 10) =      3.81760  eV     1   --> A              

 **************************************************************************

 **************************************************************************

                    xk=(   0.46667,   0.29510,   0.00000  )

     Band symmetry, C_1 (1)     point group:

     e(  1 -  1) =    -11.72639  eV     1   --> A              
     e(  2 -  2) =    -10.19052  eV     1   --> A              
     e(  3 -  3) =     -6.94710  eV     1   --> A              
     e(  4 -  4) =     -6.09437  eV     1   --> A              
     e(  5 -  5) =     -4.82008  eV     1   --> A              
     e(  6 -  6) =     -1.15477  eV     1   --> A              
     e(  7 -  7) =      0.30853  eV     1   --> A              
     e(  8 -  8) =      1.33919  eV     1   --> A              
     e(  9 -  9) =      2.97554  eV     1   --> A              
     e( 10 - 10) =      3.71920  eV     1   --> A              

 **************************************************************************

 **************************************************************************

                    xk=(   0.45000,   0.29830,   0.00000  )

     Band symmetry, C_1 (1)     point group:

     e(  1 -  1) =    -11.75395  eV     1   --> A              
     e(  2 -  2) =    -10.15706  eV     1   --> A              
     e(  3 -  3) =     -6.94342  eV     1   --> A              
     e(  4 -  4) =     -6.09039  eV     1   --> A              
     e(  5 -  5) =     -4.84803  eV     1   --> A              
     e(  6 -  6) =     -1.10279  eV     1   --> A              
     e(  7 -  7) =      0.32787  eV     1   --> A              
     e(  8 -  8) =      1.34212  eV     1   --> A              
     e(  9 -  9) =      2.92367  eV     1   --> A              
     e( 10 - 10) =      3.63339  eV     1   --> A              

 **************************************************************************

 **************************************************************************

                    xk=(   0.43333,   0.30151,   0.00000  )

     Band symmetry, C_1 (1)     point group:

     e(  1 -  1) =    -11.79010  eV     1   --> A              
     e(  2 -  2) =    -10.11303  eV     1   --> A              
     e(  3 -  3) =     -6.93769  eV     1   --> A              
     e(  4 -  4) =     -6.08528  eV     1   --> A              
     e(  5 -  5) =     -4.88530  eV     1   --> A              
     e(  6 -  6) =     -1.03198  eV     1   --> A              
     e(  7 -  7) =      0.35528  eV     1   --> A              
     e(  8 -  8) =      1.34543  eV     1   --> A              
     e(  9 -  9) =      2.85571  eV     1   --> A              
     e( 10 - 10) =      3.55964  eV     1   --> A              

 **************************************************************************

 **************************************************************************

                    xk=(   0.41667,   0.30472,   0.00000  )

     Band symmetry, C_1 (1)     point group:

     e(  1 -  1) =    -11.83297  eV     1   --> A              
     e(  2 -  2) =    -10.06060  eV     1   --> A              
     e(  3 -  3) =     -6.92934  eV     1   --> A              
     e(  4 -  4) =     -6.07939  eV     1   --> A              
     e(  5 -  5) =     -4.93028  eV     1   --> A              
     e(  6 -  6) =     -0.94406  eV     1   --> A              
     e(  7 -  7) =      0.39113  eV     1   --> A              
     e(  8 -  8) =      1.34834  eV     1   --> A              
     e(  9 -  9) =      2.77594  eV     1   --> A              
     e( 10 - 10) =      3.49636  eV     1   --> A              

 **************************************************************************

 **************************************************************************

                    xk=(   0.40000,   0.30792,   0.00000  )

     Band symmetry, C_1 (1)     point group:

     e(  1 -  1) =    -11.88079  eV     1   --> A              
     e(  2 -  2) =    -10.00202  eV     1   --> A              
     e(  3 -  3) =     -6.91774  eV     1   --> A              
     e(  4 -  4) =     -6.07322  eV     1   --> A              
     e(  5 -  5) =     -4.98113  eV     1   --> A              
     e(  6 -  6) =     -0.84101  eV     1   --> A              
     e(  7 -  7) =      0.43586  eV     1   --> A              
     e(  8 -  8) =      1.34991  eV     1   --> A              
     e(  9 -  9) =      2.68872  eV     1   --> A              
     e( 10 - 10) =      3.44164  eV     1   --> A              

 **************************************************************************

 **************************************************************************

                    xk=(   0.38333,   0.31113,   0.00000  )

     Band symmetry, C_1 (1)     point group:

     e(  1 -  1) =    -11.93197  eV     1   --> A              
     e(  2 -  2) =     -9.93946  eV     1   --> A              
     e(  3 -  3) =     -6.90225  eV     1   --> A              
     e(  4 -  4) =     -6.06740  eV     1   --> A              
     e(  5 -  5) =     -5.03592  eV     1   --> A              
     e(  6 -  6) =     -0.72499  eV     1   --> A              
     e(  7 -  7) =      0.49001  eV     1   --> A              
     e(  8 -  8) =      1.34898  eV     1   --> A              
     e(  9 -  9) =      2.59796  eV     1   --> A              
     e( 10 - 10) =      3.39386  eV     1   --> A              

 **************************************************************************

 **************************************************************************

                    xk=(   0.36667,   0.31433,   0.00000  )

     Band symmetry, C_1 (1)     point group:

     e(  1 -  1) =    -11.98507  eV     1   --> A              
     e(  2 -  2) =     -9.87485  eV     1   --> A              
     e(  3 -  3) =     -6.88220  eV     1   --> A              
     e(  4 -  4) =     -6.06240  eV     1   --> A              
     e(  5 -  5) =     -5.09266  eV     1   --> A              
     e(  6 -  6) =     -0.59825  eV     1   --> A              
     e(  7 -  7) =      0.55428  eV     1   --> A              
     e(  8 -  8) =      1.34434  eV     1   --> A              
     e(  9 -  9) =      2.50683  eV     1   --> A              
     e( 10 - 10) =      3.35184  eV     1   --> A              

 **************************************************************************

 **************************************************************************

                    xk=(   0.35000,   0.31754,   0.00000  )

     Band symmetry, C_1 (1)     point group:

     e(  1 -  1) =    -12.03896  eV     1   --> A              
     e(  2 -  2) =     -9.80996  eV     1   --> A              
     e(  3 -  3) =     -6.85703  eV     1   --> A              
     e(  4 -  4) =     -6.05886  eV     1   --> A              
     e(  5 -  5) =     -5.14937  eV     1   --> A              
     e(  6 -  6) =     -0.46312  eV     1   --> A              
     e(  7 -  7) =      0.62944  eV     1   --> A              
     e(  8 -  8) =      1.33467  eV     1   --> A              
     e(  9 -  9) =      2.41790  eV     1   --> A              
     e( 10 - 10) =      3.31473  eV     1   --> A              

 **************************************************************************

 **************************************************************************

                    xk=(   0.33333,   0.32075,   0.00000  )

     Band symmetry, C_1 (1)     point group:

     e(  1 -  1) =    -12.09271  eV     1   --> A              
     e(  2 -  2) =     -9.74632  eV     1   --> A              
     e(  3 -  3) =     -6.82631  eV     1   --> A              
     e(  4 -  4) =     -6.05747  eV     1   --> A              
     e(  5 -  5) =     -5.20403  eV     1   --> A              
     e(  6 -  6) =     -0.32202  eV     1   --> A              
     e(  7 -  7) =      0.71634  eV     1   --> A              
     e(  8 -  8) =      1.31863  eV     1   --> A              
     e(  9 -  9) =      2.33321  eV     1   --> A              
     e( 10 - 10) =      3.28184  eV     1   --> A              

 **************************************************************************

 **************************************************************************

                    xk=(   0.31667,   0.32395,   0.00000  )

     Band symmetry, C_1 (1)     point group:

     e(  1 -  1) =    -12.14553  eV     1   --> A              
     e(  2 -  2) =     -9.68528  eV     1   --> A              
     e(  3 -  3) =     -6.78992  eV     1   --> A              
     e(  4 -  4) =     -6.05866  eV     1   --> A              
     e(  5 -  5) =     -5.25466  eV     1   --> A              
     e(  6 -  6) =     -0.17739  eV     1   --> A              
     e(  7 -  7) =      0.81577  eV     1   --> A              
     e(  8 -  8) =      1.29500  eV     1   --> A              
     e(  9 -  9) =      2.25447  eV     1   --> A              
     e( 10 - 10) =      3.25249  eV     1   --> A              

 **************************************************************************

 **************************************************************************

                    xk=(   0.30000,   0.32716,   0.00000  )

     Band symmetry, C_1 (1)     point group:

     e(  1 -  1) =    -12.19681  eV     1   --> A              
     e(  2 -  2) =     -9.62794  eV     1   --> A              
     e(  3 -  3) =     -6.74813  eV     1   --> A              
     e(  4 -  4) =     -6.06287  eV     1   --> A              
     e(  5 -  5) =     -5.29927  eV     1   --> A              
     e(  6 -  6) =     -0.03170  eV     1   --> A              
     e(  7 -  7) =      0.92808  eV     1   --> A              
     e(  8 -  8) =      1.26295  eV     1   --> A              
     e(  9 -  9) =      2.18305  eV     1   --> A              
     e( 10 - 10) =      3.22568  eV     1   --> A              

 **************************************************************************

 **************************************************************************

                    xk=(   0.28333,   0.33037,   0.00000  )

     Band symmetry, C_1 (1)     point group:

     e(  1 -  1) =    -12.24604  eV     1   --> A              
     e(  2 -  2) =     -9.57519  eV     1   --> A              
     e(  3 -  3) =     -6.70180  eV     1   --> A              
     e(  4 -  4) =     -6.07008  eV     1   --> A              
     e(  5 -  5) =     -5.33599  eV     1   --> A              
     e(  6 -  6) =      0.11277  eV     1   --> A              
     e(  7 -  7) =      1.05085  eV     1   --> A              
     e(  8 -  8) =      1.22411  eV     1   --> A              
     e(  9 -  9) =      2.12001  eV     1   --> A              
     e( 10 - 10) =      3.19572  eV     1   --> A              

 **************************************************************************

 **************************************************************************

                    xk=(   0.26667,   0.33357,   0.00000  )

     Band symmetry, C_1 (1)     point group:

     e(  1 -  1) =    -12.29282  eV     1   --> A              
     e(  2 -  2) =     -9.52764  eV     1   --> A              
     e(  3 -  3) =     -6.65256  eV     1   --> A              
     e(  4 -  4) =     -6.07968  eV     1   --> A              
     e(  5 -  5) =     -5.36307  eV     1   --> A              
     e(  6 -  6) =      0.25400  eV     1   --> A              
     e(  7 -  7) =      1.13271  eV     1   --> A              
     e(  8 -  8) =      1.22831  eV     1   --> A              
     e(  9 -  9) =      2.06609  eV     1   --> A              
     e( 10 - 10) =      3.00026  eV     1   --> A              

 **************************************************************************

 **************************************************************************

                    xk=(   0.25000,   0.33678,   0.00000  )

     Band symmetry, C_1 (1)     point group:

     e(  1 -  1) =    -12.33678  eV     1   --> A              
     e(  2 -  2) =     -9.48569  eV     1   --> A              
     e(  3 -  3) =     -6.60312  eV     1   --> A              
     e(  4 -  4) =     -6.08995  eV     1   --> A              
     e(  5 -  5) =     -5.37894  eV     1   --> A              
     e(  6 -  6) =      0.39032  eV     1   --> A              
     e(  7 -  7) =      1.08133  eV     1   --> A              
     e(  8 -  8) =      1.36486  eV     1   --> A              
     e(  9 -  9) =      2.02169  eV     1   --> A              
     e( 10 - 10) =      2.72513  eV     1   --> A              

 **************************************************************************

 **************************************************************************

                    xk=(   0.23333,   0.33998,   0.00000  )

     Band symmetry, C_1 (1)     point group:

     e(  1 -  1) =    -12.37766  eV     1   --> A              
     e(  2 -  2) =     -9.44952  eV     1   --> A              
     e(  3 -  3) =     -6.55754  eV     1   --> A              
     e(  4 -  4) =     -6.09813  eV     1   --> A              
     e(  5 -  5) =     -5.38224  eV     1   --> A              
     e(  6 -  6) =      0.52029  eV     1   --> A              
     e(  7 -  7) =      0.99946  eV     1   --> A              
     e(  8 -  8) =      1.52451  eV     1   --> A              
     e(  9 -  9) =      1.98658  eV     1   --> A              
     e( 10 - 10) =      2.46509  eV     1   --> A              

 **************************************************************************

 **************************************************************************

                    xk=(   0.21667,   0.34319,   0.00000  )

     Band symmetry, C_1 (1)     point group:

     e(  1 -  1) =    -12.41520  eV     1   --> A              
     e(  2 -  2) =     -9.41907  eV     1   --> A              
     e(  3 -  3) =     -6.52101  eV     1   --> A              
     e(  4 -  4) =     -6.10043  eV     1   --> A              
     e(  5 -  5) =     -5.37174  eV     1   --> A              
     e(  6 -  6) =      0.64165  eV     1   --> A              
     e(  7 -  7) =      0.89887  eV     1   --> A              
     e(  8 -  8) =      1.67879  eV     1   --> A              
     e(  9 -  9) =      1.95758  eV     1   --> A              
     e( 10 - 10) =      2.24865  eV     1   --> A              

 **************************************************************************

 **************************************************************************

                    xk=(   0.20000,   0.34640,   0.00000  )

     Band symmetry, C_1 (1)     point group:

     e(  1 -  1) =    -12.44924  eV     1   --> A              
     e(  2 -  2) =     -9.39421  eV     1   --> A              
     e(  3 -  3) =     -6.49850  eV     1   --> A              
     e(  4 -  4) =     -6.09361  eV     1   --> A              
     e(  5 -  5) =     -5.34633  eV     1   --> A              
     e(  6 -  6) =      0.72814  eV     1   --> A              
     e(  7 -  7) =      0.80259  eV     1   --> A              
     e(  8 -  8) =      1.75935  eV     1   --> A              
     e(  9 -  9) =      1.92685  eV     1   --> A              
     e( 10 - 10) =      2.15665  eV     1   --> A              

 **************************************************************************

 **************************************************************************

                    xk=(   0.18333,   0.34960,   0.00000  )

     Band symmetry, C_1 (1)     point group:

     e(  1 -  1) =    -12.47959  eV     1   --> A              
     e(  2 -  2) =     -9.37458  eV     1   --> A              
     e(  3 -  3) =     -6.49215  eV     1   --> A              
     e(  4 -  4) =     -6.07711  eV     1   --> A              
     e(  5 -  5) =     -5.30519  eV     1   --> A              
     e(  6 -  6) =      0.61234  eV     1   --> A              
     e(  7 -  7) =      0.87445  eV     1   --> A              
     e(  8 -  8) =      1.66903  eV     1   --> A              
     e(  9 -  9) =      1.93120  eV     1   --> A              
     e( 10 - 10) =      2.25290  eV     1   --> A              

 **************************************************************************

 **************************************************************************

                    xk=(   0.16667,   0.35281,   0.00000  )

     Band symmetry, C_1 (1)     point group:

     e(  1 -  1) =    -12.50613  eV     1   --> A              
     e(  2 -  2) =     -9.35979  eV     1   --> A              
     e(  3 -  3) =     -6.50008  eV     1   --> A              
     e(  4 -  4) =     -6.05417  eV     1   --> A              
     e(  5 -  5) =     -5.24817  eV     1   --> A              
     e(  6 -  6) =      0.44156  eV     1   --> A              
     e(  7 -  7) =      0.96587  eV     1   --> A              
     e(  8 -  8) =      1.53403  eV     1   --> A              
     e(  9 -  9) =      1.95005  eV     1   --> A              
     e( 10 - 10) =      2.43085  eV     1   --> A              

 **************************************************************************

 **************************************************************************

                    xk=(   0.15000,   0.35602,   0.00000  )

     Band symmetry, C_1 (1)     point group:

     e(  1 -  1) =    -12.52873  eV     1   --> A              
     e(  2 -  2) =     -9.34943  eV     1   --> A              
     e(  3 -  3) =     -6.51812  eV     1   --> A              
     e(  4 -  4) =     -6.02938  eV     1   --> A              
     e(  5 -  5) =     -5.17630  eV     1   --> A              
     e(  6 -  6) =      0.25063  eV     1   --> A              
     e(  7 -  7) =      1.04392  eV     1   --> A              
     e(  8 -  8) =      1.41560  eV     1   --> A              
     e(  9 -  9) =      1.97943  eV     1   --> A              
     e( 10 - 10) =      2.62295  eV     1   --> A              

 **************************************************************************

 **************************************************************************

                    xk=(   0.13333,   0.35922,   0.00000  )

     Band symmetry, C_1 (1)     point group:

     e(  1 -  1) =    -12.54731  eV     1   --> A              
     e(  2 -  2) =     -9.34304  eV     1   --> A              
     e(  3 -  3) =     -6.54221  eV     1   --> A              
     e(  4 -  4) =     -6.00640  eV     1   --> A              
     e(  5 -  5) =     -5.09196  eV     1   --> A              
     e(  6 -  6) =      0.04880  eV     1   --> A              
     e(  7 -  7) =      1.10161  eV     1   --> A              
     e(  8 -  8) =      1.32402  eV     1   --> A              
     e(  9 -  9) =      2.02216  eV     1   --> A              
     e( 10 - 10) =      2.77978  eV     1   --> A              

 **************************************************************************

 **************************************************************************

                    xk=(   0.11667,   0.36243,   0.00000  )

     Band symmetry, C_1 (1)     point group:

     e(  1 -  1) =    -12.56179  eV     1   --> A              
     e(  2 -  2) =     -9.34017  eV     1   --> A              
     e(  3 -  3) =     -6.56925  eV     1   --> A              
     e(  4 -  4) =     -5.98699  eV     1   --> A              
     e(  5 -  5) =     -4.99876  eV     1   --> A              
     e(  6 -  6) =     -0.15518  eV     1   --> A              
     e(  7 -  7) =      1.12399  eV     1   --> A              
     e(  8 -  8) =      1.27121  eV     1   --> A              
     e(  9 -  9) =      2.07808  eV     1   --> A              
     e( 10 - 10) =      2.84141  eV     1   --> A              

 **************************************************************************

 **************************************************************************

                    xk=(   0.10000,   0.36564,   0.00000  )

     Band symmetry, C_1 (1)     point group:

     e(  1 -  1) =    -12.57210  eV     1   --> A              
     e(  2 -  2) =     -9.34038  eV     1   --> A              
     e(  3 -  3) =     -6.59715  eV     1   --> A              
     e(  4 -  4) =     -5.97176  eV     1   --> A              
     e(  5 -  5) =     -4.90128  eV     1   --> A              
     e(  6 -  6) =     -0.35335  eV     1   --> A              
     e(  7 -  7) =      1.09851  eV     1   --> A              
     e(  8 -  8) =      1.26740  eV     1   --> A              
     e(  9 -  9) =      2.14468  eV     1   --> A              
     e( 10 - 10) =      2.85326  eV     1   --> A              

 **************************************************************************

 **************************************************************************

                    xk=(   0.08333,   0.36884,   0.00000  )

     Band symmetry, C_1 (1)     point group:

     e(  1 -  1) =    -12.57819  eV     1   --> A              
     e(  2 -  2) =     -9.34334  eV     1   --> A              
     e(  3 -  3) =     -6.62447  eV     1   --> A              
     e(  4 -  4) =     -5.96044  eV     1   --> A              
     e(  5 -  5) =     -4.80470  eV     1   --> A              
     e(  6 -  6) =     -0.53858  eV     1   --> A              
     e(  7 -  7) =      1.05353  eV     1   --> A              
     e(  8 -  8) =      1.28354  eV     1   --> A              
     e(  9 -  9) =      2.21783  eV     1   --> A              
     e( 10 - 10) =      2.85717  eV     1   --> A              

 **************************************************************************

 **************************************************************************

                    xk=(   0.06667,   0.37205,   0.00000  )

     Band symmetry, C_1 (1)     point group:

     e(  1 -  1) =    -12.58002  eV     1   --> A              
     e(  2 -  2) =     -9.34871  eV     1   --> A              
     e(  3 -  3) =     -6.65024  eV     1   --> A              
     e(  4 -  4) =     -5.95260  eV     1   --> A              
     e(  5 -  5) =     -4.71475  eV     1   --> A              
     e(  6 -  6) =     -0.70416  eV     1   --> A              
     e(  7 -  7) =      1.00926  eV     1   --> A              
     e(  8 -  8) =      1.29993  eV     1   --> A              
     e(  9 -  9) =      2.29241  eV     1   --> A              
     e( 10 - 10) =      2.86300  eV     1   --> A              

 **************************************************************************

 **************************************************************************

                    xk=(   0.05000,   0.37525,   0.00000  )

     Band symmetry, C_1 (1)     point group:

     e(  1 -  1) =    -12.57755  eV     1   --> A              
     e(  2 -  2) =     -9.35617  eV     1   --> A              
     e(  3 -  3) =     -6.67376  eV     1   --> A              
     e(  4 -  4) =     -5.94774  eV     1   --> A              
     e(  5 -  5) =     -4.63746  eV     1   --> A              
     e(  6 -  6) =     -0.84361  eV     1   --> A              
     e(  7 -  7) =      0.97033  eV     1   --> A              
     e(  8 -  8) =      1.31287  eV     1   --> A              
     e(  9 -  9) =      2.36294  eV     1   --> A              
     e( 10 - 10) =      2.87343  eV     1   --> A              

 **************************************************************************

 **************************************************************************

                    xk=(   0.03333,   0.37846,   0.00000  )

     Band symmetry, C_1 (1)     point group:

     e(  1 -  1) =    -12.57079  eV     1   --> A              
     e(  2 -  2) =     -9.36564  eV     1   --> A              
     e(  3 -  3) =     -6.69461  eV     1   --> A              
     e(  4 -  4) =     -5.94554  eV     1   --> A              
     e(  5 -  5) =     -4.57887  eV     1   --> A              
     e(  6 -  6) =     -0.95069  eV     1   --> A              
     e(  7 -  7) =      0.93764  eV     1   --> A              
     e(  8 -  8) =      1.32223  eV     1   --> A              
     e(  9 -  9) =      2.42385  eV     1   --> A              
     e( 10 - 10) =      2.88912  eV     1   --> A              

 **************************************************************************

 **************************************************************************

                    xk=(   0.01667,   0.38167,   0.00000  )

     Band symmetry, C_1 (1)     point group:

     e(  1 -  1) =    -12.55969  eV     1   --> A              
     e(  2 -  2) =     -9.37687  eV     1   --> A              
     e(  3 -  3) =     -6.71243  eV     1   --> A              
     e(  4 -  4) =     -5.94563  eV     1   --> A              
     e(  5 -  5) =     -4.54440  eV     1   --> A              
     e(  6 -  6) =     -1.01994  eV     1   --> A              
     e(  7 -  7) =      0.91131  eV     1   --> A              
     e(  8 -  8) =      1.32859  eV     1   --> A              
     e(  9 -  9) =      2.46984  eV     1   --> A              
     e( 10 - 10) =      2.90828  eV     1   --> A              

 **************************************************************************

 **************************************************************************

                    xk=(   0.00000,   0.38487,   0.00000  )

     point group C_s (m)    
     there are  2 classes
     the character table:

       E     s    
A'     1.00  1.00
A''    1.00 -1.00

     the symmetry operations in each class and the name of the first element:

     E        1
                                                                 
     s        2
                                                                 

     Band symmetry, C_s (m)     point group:

     e(  1 -  1) =    -12.54427  eV     1   --> A'             
     e(  2 -  2) =     -9.38985  eV     1   --> A'             
     e(  3 -  3) =     -6.72700  eV     1   --> A'             
     e(  4 -  4) =     -5.94786  eV     1   --> A'             
     e(  5 -  5) =     -4.53796  eV     1   --> A''            
     e(  6 -  6) =     -1.04744  eV     1   --> A'             
     e(  7 -  7) =      0.89132  eV     1   --> A'             
     e(  8 -  8) =      1.33232  eV     1   --> A'             
     e(  9 -  9) =      2.49655  eV     1   --> A'             
     e( 10 - 10) =      2.92179  eV     1   --> A''            

 **************************************************************************

 **************************************************************************

                    xk=(   0.00000,   0.37204,   0.00324  )

     Band symmetry, C_s (m)     point group:

     e(  1 -  1) =    -12.61403  eV     1   --> A'             
     e(  2 -  2) =     -9.33718  eV     1   --> A'             
     e(  3 -  3) =     -6.67155  eV     1   --> A'             
     e(  4 -  4) =     -5.93507  eV     1   --> A'             
     e(  5 -  5) =     -4.50373  eV     1   --> A''            
     e(  6 -  6) =     -1.02277  eV     1   --> A'             
     e(  7 -  7) =      0.95868  eV     1   --> A'             
     e(  8 -  8) =      1.32099  eV     1   --> A'             
     e(  9 -  9) =      2.43362  eV     1   --> A'             
     e( 10 - 10) =      2.88261  eV     1   -->   ?

 **************************************************************************

 **************************************************************************

                    xk=(   0.00000,   0.35921,   0.00648  )

     Band symmetry, C_s (m)     point group:

     e(  1 -  1) =    -12.68244  eV     1   --> A'             
     e(  2 -  2) =     -9.28997  eV     1   --> A'             
     e(  3 -  3) =     -6.60820  eV     1   --> A'             
     e(  4 -  4) =     -5.92260  eV     1   --> A'             
     e(  5 -  5) =     -4.46761  eV     1   --> A''            
     e(  6 -  6) =     -0.99584  eV     1   --> A'             
     e(  7 -  7) =      1.02495  eV     1   --> A'             
     e(  8 -  8) =      1.30738  eV     1   --> A'             
     e(  9 -  9) =      2.37576  eV     1   --> A'             
     e( 10 - 10) =      2.83397  eV     1   -->   ?

 **************************************************************************

 **************************************************************************

                    xk=(   0.00000,   0.34639,   0.00972  )

     Band symmetry, C_s (m)     point group:

     e(  1 -  1) =    -12.74931  eV     1   --> A'             
     e(  2 -  2) =     -9.24829  eV     1   --> A'             
     e(  3 -  3) =     -6.53699  eV     1   --> A'             
     e(  4 -  4) =     -5.91037  eV     1   --> A'             
     e(  5 -  5) =     -4.42965  eV     1   --> A''            
     e(  6 -  6) =     -0.96667  eV     1   --> A'             
     e(  7 -  7) =      1.08720  eV     1   --> A'             
     e(  8 -  8) =      1.29317  eV     1   --> A'             
     e(  9 -  9) =      2.32292  eV     1   --> A'             
     e( 10 - 10) =      2.70935  eV     1   --> A'             

 **************************************************************************

 **************************************************************************

                    xk=(   0.00000,   0.33356,   0.01296  )

     Band symmetry, C_s (m)     point group:

     e(  1 -  1) =    -12.81447  eV     1   --> A'             
     e(  2 -  2) =     -9.21219  eV     1   --> A'             
     e(  3 -  3) =     -6.45824  eV     1   --> A'             
     e(  4 -  4) =     -5.89808  eV     1   --> A'             
     e(  5 -  5) =     -4.38995  eV     1   --> A''            
     e(  6 -  6) =     -0.93532  eV     1   --> A'             
     e(  7 -  7) =      1.13858  eV     1   --> A'             
     e(  8 -  8) =      1.28375  eV     1   --> A'             
     e(  9 -  9) =      2.27495  eV     1   --> A'             
     e( 10 - 10) =      2.63623  eV     1   -->   ?

 **************************************************************************

 **************************************************************************

                    xk=(   0.00000,   0.32073,   0.01620  )

     Band symmetry, C_s (m)     point group:

     e(  1 -  1) =    -12.87784  eV     1   --> A'             
     e(  2 -  2) =     -9.18156  eV     1   --> A'             
     e(  3 -  3) =     -6.37266  eV     1   --> A'             
     e(  4 -  4) =     -5.88542  eV     1   --> A'             
     e(  5 -  5) =     -4.34858  eV     1   --> A''            
     e(  6 -  6) =     -0.90188  eV     1   --> A'             
     e(  7 -  7) =      1.16404  eV     1   --> A'             
     e(  8 -  8) =      1.29250  eV     1   --> A'             
     e(  9 -  9) =      2.23151  eV     1   --> A'             
     e( 10 - 10) =      2.56600  eV     1   --> A'             

 **************************************************************************

 **************************************************************************

                    xk=(   0.00000,   0.30790,   0.01944  )

     Band symmetry, C_s (m)     point group:

     e(  1 -  1) =    -12.93926  eV     1   --> A'             
     e(  2 -  2) =     -9.15614  eV     1   --> A'             
     e(  3 -  3) =     -6.28152  eV     1   --> A'             
     e(  4 -  4) =     -5.87128  eV     1   --> A'             
     e(  5 -  5) =     -4.30564  eV     1   --> A''            
     e(  6 -  6) =     -0.86649  eV     1   --> A'             
     e(  7 -  7) =      1.15681  eV     1   --> A'             
     e(  8 -  8) =      1.32443  eV     1   --> A'             
     e(  9 -  9) =      2.19193  eV     1   --> A'             
     e( 10 - 10) =      2.53834  eV     1   --> A''            

 **************************************************************************

 **************************************************************************

                    xk=(   0.00000,   0.29507,   0.02268  )

     Band symmetry, C_s (m)     point group:

     e(  1 -  1) =    -12.99864  eV     1   --> A'             
     e(  2 -  2) =     -9.13557  eV     1   --> A'             
     e(  3 -  3) =     -6.18728  eV     1   --> A'             
     e(  4 -  4) =     -5.85358  eV     1   --> A'             
     e(  5 -  5) =     -4.26125  eV     1   --> A''            
     e(  6 -  6) =     -0.82932  eV     1   --> A'             
     e(  7 -  7) =      1.13157  eV     1   --> A'             
     e(  8 -  8) =      1.36301  eV     1   --> A'             
     e(  9 -  9) =      2.15497  eV     1   --> A'             
     e( 10 - 10) =      2.43198  eV     1   --> A'             

 **************************************************************************

 **************************************************************************

                    xk=(   0.00000,   0.28224,   0.02592  )

     Band symmetry, C_s (m)     point group:

     e(  1 -  1) =    -13.05591  eV     1   --> A'             
     e(  2 -  2) =     -9.11948  eV     1   --> A'             
     e(  3 -  3) =     -6.09518  eV     1   --> A'             
     e(  4 -  4) =     -5.82776  eV     1   --> A'             
     e(  5 -  5) =     -4.21553  eV     1   --> A''            
     e(  6 -  6) =     -0.79062  eV     1   --> A'             
     e(  7 -  7) =      1.09815  eV     1   --> A'             
     e(  8 -  8) =      1.39660  eV     1   --> A'             
     e(  9 -  9) =      2.11824  eV     1   --> A'             
     e( 10 - 10) =      2.33793  eV     1   --> A''            

 **************************************************************************

 **************************************************************************

                    xk=(   0.00000,   0.26941,   0.02916  )

     Band symmetry, C_s (m)     point group:

     e(  1 -  1) =    -13.11099  eV     1   --> A'             
     e(  2 -  2) =     -9.10733  eV     1   --> A'             
     e(  3 -  3) =     -6.01566  eV     1   --> A'             
     e(  4 -  4) =     -5.78380  eV     1   --> A'             
     e(  5 -  5) =     -4.16861  eV     1   --> A''            
     e(  6 -  6) =     -0.75071  eV     1   --> A'             
     e(  7 -  7) =      1.06007  eV     1   --> A'             
     e(  8 -  8) =      1.42038  eV     1   --> A'             
     e(  9 -  9) =      2.07787  eV     1   --> A'             
     e( 10 - 10) =      2.22891  eV     1   --> A''            

 **************************************************************************

 **************************************************************************

                    xk=(   0.00000,   0.25658,   0.03240  )

     Band symmetry, C_s (m)     point group:

     e(  1 -  1) =    -13.16383  eV     1   --> A'             
     e(  2 -  2) =     -9.09871  eV     1   --> A'             
     e(  3 -  3) =     -5.96088  eV     1   --> A'             
     e(  4 -  4) =     -5.71015  eV     1   --> A'             
     e(  5 -  5) =     -4.12065  eV     1   --> A''            
     e(  6 -  6) =     -0.70999  eV     1   --> A'             
     e(  7 -  7) =      1.01876  eV     1   --> A'             
     e(  8 -  8) =      1.43223  eV     1   --> A'             
     e(  9 -  9) =      2.02882  eV     1   --> A'             
     e( 10 - 10) =      2.11597  eV     1   --> A''            

 **************************************************************************

 **************************************************************************

                    xk=(   0.00000,   0.24375,   0.03564  )

     Band symmetry, C_s (m)     point group:

     e(  1 -  1) =    -13.21433  eV     1   --> A'             
     e(  2 -  2) =     -9.09312  eV     1   --> A'             
     e(  3 -  3) =     -5.92967  eV     1   --> A'             
     e(  4 -  4) =     -5.60841  eV     1   --> A'             
     e(  5 -  5) =     -4.07182  eV     1   --> A''            
     e(  6 -  6) =     -0.66896  eV     1   --> A'             
     e(  7 -  7) =      0.97490  eV     1   --> A'             
     e(  8 -  8) =      1.43149  eV     1   --> A'             
     e(  9 -  9) =      1.96768  eV     1   --> A'             
     e( 10 - 10) =      2.00050  eV     1   --> A''            

 **************************************************************************

 **************************************************************************

                    xk=(   0.00000,   0.23092,   0.03888  )

     Band symmetry, C_s (m)     point group:

     e(  1 -  1) =    -13.26249  eV     1   --> A'             
     e(  2 -  2) =     -9.09014  eV     1   --> A'             
     e(  3 -  3) =     -5.91210  eV     1   --> A'             
     e(  4 -  4) =     -5.48922  eV     1   --> A'             
     e(  5 -  5) =     -4.02230  eV     1   --> A''            
     e(  6 -  6) =     -0.62830  eV     1   --> A'             
     e(  7 -  7) =      0.92888  eV     1   --> A'             
     e(  8 -  8) =      1.41826  eV     1   --> A'             
     e(  9 -  9) =      1.88377  eV     1   --> A''            
     e( 10 - 10) =      1.89564  eV     1   --> A'             

 **************************************************************************

 **************************************************************************

                    xk=(   0.00000,   0.21809,   0.04212  )

     Band symmetry, C_s (m)     point group:

     e(  1 -  1) =    -13.30824  eV     1   --> A'             
     e(  2 -  2) =     -9.08932  eV     1   --> A'             
     e(  3 -  3) =     -5.90128  eV     1   --> A'             
     e(  4 -  4) =     -5.35991  eV     1   --> A'             
     e(  5 -  5) =     -3.97232  eV     1   --> A''            
     e(  6 -  6) =     -0.58887  eV     1   --> A'             
     e(  7 -  7) =      0.88089  eV     1   --> A'             
     e(  8 -  8) =      1.39278  eV     1   --> A'             
     e(  9 -  9) =      1.76694  eV     1   --> A''            
     e( 10 - 10) =      1.81793  eV     1   --> A'             

 **************************************************************************

 **************************************************************************

                    xk=(   0.00000,   0.20527,   0.04536  )

     Band symmetry, C_s (m)     point group:

     e(  1 -  1) =    -13.35154  eV     1   --> A'             
     e(  2 -  2) =     -9.09027  eV     1   --> A'             
     e(  3 -  3) =     -5.89412  eV     1   --> A'             
     e(  4 -  4) =     -5.22416  eV     1   --> A'             
     e(  5 -  5) =     -3.92210  eV     1   --> A''            
     e(  6 -  6) =     -0.55178  eV     1   --> A'             
     e(  7 -  7) =      0.83103  eV     1   --> A'             
     e(  8 -  8) =      1.35524  eV     1   --> A'             
     e(  9 -  9) =      1.65105  eV     1   --> A''            
     e( 10 - 10) =      1.74096  eV     1   --> A'             

 **************************************************************************

 **************************************************************************

                    xk=(   0.00000,   0.19244,   0.04860  )

     Band symmetry, C_s (m)     point group:

     e(  1 -  1) =    -13.39237  eV     1   --> A'             
     e(  2 -  2) =     -9.09270  eV     1   --> A'             
     e(  3 -  3) =     -5.88922  eV     1   --> A'             
     e(  4 -  4) =     -5.08402  eV     1   --> A'             
     e(  5 -  5) =     -3.87192  eV     1   --> A''            
     e(  6 -  6) =     -0.51851  eV     1   --> A'             
     e(  7 -  7) =      0.77943  eV     1   --> A'             
     e(  8 -  8) =      1.30624  eV     1   --> A'             
     e(  9 -  9) =      1.53703  eV     1   --> A''            
     e( 10 - 10) =      1.67032  eV     1   --> A'             

 **************************************************************************

 **************************************************************************

                    xk=(   0.00000,   0.17961,   0.05184  )

     Band symmetry, C_s (m)     point group:

     e(  1 -  1) =    -13.43068  eV     1   --> A'             
     e(  2 -  2) =     -9.09620  eV     1   --> A'             
     e(  3 -  3) =     -5.88580  eV     1   --> A'             
     e(  4 -  4) =     -4.94083  eV     1   --> A'             
     e(  5 -  5) =     -3.82207  eV     1   --> A''            
     e(  6 -  6) =     -0.49096  eV     1   --> A'             
     e(  7 -  7) =      0.72659  eV     1   --> A'             
     e(  8 -  8) =      1.24791  eV     1   --> A'             
     e(  9 -  9) =      1.42572  eV     1   --> A''            
     e( 10 - 10) =      1.60927  eV     1   --> A'             

 **************************************************************************

 **************************************************************************

                    xk=(   0.00000,   0.16678,   0.05508  )

     Band symmetry, C_s (m)     point group:

     e(  1 -  1) =    -13.46646  eV     1   --> A'             
     e(  2 -  2) =     -9.10051  eV     1   --> A'             
     e(  3 -  3) =     -5.88336  eV     1   --> A'             
     e(  4 -  4) =     -4.79565  eV     1   --> A'             
     e(  5 -  5) =     -3.77286  eV     1   --> A''            
     e(  6 -  6) =     -0.47155  eV     1   --> A'             
     e(  7 -  7) =      0.67356  eV     1   --> A'             
     e(  8 -  8) =      1.18431  eV     1   --> A'             
     e(  9 -  9) =      1.31792  eV     1   --> A''            
     e( 10 - 10) =      1.55822  eV     1   --> A'             

 **************************************************************************

 **************************************************************************

                    xk=(   0.00000,   0.15395,   0.05832  )

     Band symmetry, C_s (m)     point group:

     e(  1 -  1) =    -13.49966  eV     1   --> A'             
     e(  2 -  2) =     -9.10537  eV     1   --> A'             
     e(  3 -  3) =     -5.88167  eV     1   --> A'             
     e(  4 -  4) =     -4.64947  eV     1   --> A'             
     e(  5 -  5) =     -3.72464  eV     1   --> A''            
     e(  6 -  6) =     -0.46320  eV     1   --> A'             
     e(  7 -  7) =      0.62239  eV     1   --> A'             
     e(  8 -  8) =      1.12024  eV     1   --> A'             
     e(  9 -  9) =      1.21437  eV     1   --> A''            
     e( 10 - 10) =      1.51564  eV     1   --> A'             

 **************************************************************************

 **************************************************************************

                    xk=(   0.00000,   0.14112,   0.06156  )

     Band symmetry, C_s (m)     point group:

     e(  1 -  1) =    -13.53029  eV     1   --> A'             
     e(  2 -  2) =     -9.11060  eV     1   --> A'             
     e(  3 -  3) =     -5.88059  eV     1   --> A'             
     e(  4 -  4) =     -4.50326  eV     1   --> A'             
     e(  5 -  5) =     -3.67781  eV     1   --> A''            
     e(  6 -  6) =     -0.46900  eV     1   --> A'             
     e(  7 -  7) =      0.57611  eV     1   --> A'             
     e(  8 -  8) =      1.05968  eV     1   --> A'             
     e(  9 -  9) =      1.11575  eV     1   --> A''            
     e( 10 - 10) =      1.47958  eV     1   --> A'             

 **************************************************************************

 **************************************************************************

                    xk=(   0.00000,   0.12829,   0.06480  )

     Band symmetry, C_s (m)     point group:

     e(  1 -  1) =    -13.55831  eV     1   --> A'             
     e(  2 -  2) =     -9.11595  eV     1   --> A'             
     e(  3 -  3) =     -5.87993  eV     1   --> A'             
     e(  4 -  4) =     -4.35808  eV     1   --> A'             
     e(  5 -  5) =     -3.63278  eV     1   --> A''            
     e(  6 -  6) =     -0.49153  eV     1   --> A'             
     e(  7 -  7) =      0.53812  eV     1   --> A'             
     e(  8 -  8) =      1.00501  eV     1   --> A'             
     e(  9 -  9) =      1.02276  eV     1   --> A''            
     e( 10 - 10) =      1.44845  eV     1   --> A'             

 **************************************************************************

 **************************************************************************

                    xk=(   0.00000,   0.11546,   0.06804  )

     Band symmetry, C_s (m)     point group:

     e(  1 -  1) =    -13.58371  eV     1   --> A'             
     e(  2 -  2) =     -9.12126  eV     1   --> A'             
     e(  3 -  3) =     -5.87959  eV     1   --> A'             
     e(  4 -  4) =     -4.21515  eV     1   --> A'             
     e(  5 -  5) =     -3.58998  eV     1   --> A''            
     e(  6 -  6) =     -0.53184  eV     1   --> A'             
     e(  7 -  7) =      0.51111  eV     1   --> A'             
     e(  8 -  8) =      0.93605  eV     1   --> A''            
     e(  9 -  9) =      0.95717  eV     1   --> A'             
     e( 10 - 10) =      1.42115  eV     1   --> A'             

 **************************************************************************

 **************************************************************************

                    xk=(   0.00000,   0.10263,   0.07128  )

     Band symmetry, C_s (m)     point group:

     e(  1 -  1) =    -13.60647  eV     1   --> A'             
     e(  2 -  2) =     -9.12636  eV     1   --> A'             
     e(  3 -  3) =     -5.87949  eV     1   --> A'             
     e(  4 -  4) =     -4.07587  eV     1   --> A'             
     e(  5 -  5) =     -3.54988  eV     1   --> A''            
     e(  6 -  6) =     -0.58873  eV     1   --> A'             
     e(  7 -  7) =      0.49592  eV     1   --> A'             
     e(  8 -  8) =      0.85626  eV     1   --> A''            
     e(  9 -  9) =      0.91618  eV     1   --> A'             
     e( 10 - 10) =      1.39699  eV     1   --> A'             

 **************************************************************************

 **************************************************************************

                    xk=(   0.00000,   0.08980,   0.07452  )

     Band symmetry, C_s (m)     point group:

     e(  1 -  1) =    -13.62659  eV     1   --> A'             
     e(  2 -  2) =     -9.13114  eV     1   --> A'             
     e(  3 -  3) =     -5.87956  eV     1   --> A'             
     e(  4 -  4) =     -3.94197  eV     1   --> A'             
     e(  5 -  5) =     -3.51296  eV     1   --> A''            
     e(  6 -  6) =     -0.65872  eV     1   --> A'             
     e(  7 -  7) =      0.49140  eV     1   --> A'             
     e(  8 -  8) =      0.78402  eV     1   --> A''            
     e(  9 -  9) =      0.88161  eV     1   --> A'             
     e( 10 - 10) =      1.37555  eV     1   --> A'             

 **************************************************************************

 **************************************************************************

                    xk=(   0.00000,   0.07697,   0.07776  )

     Band symmetry, C_s (m)     point group:

     e(  1 -  1) =    -13.64404  eV     1   --> A'             
     e(  2 -  2) =     -9.13550  eV     1   --> A'             
     e(  3 -  3) =     -5.87974  eV     1   --> A'             
     e(  4 -  4) =     -3.81556  eV     1   --> A'             
     e(  5 -  5) =     -3.47971  eV     1   --> A''            
     e(  6 -  6) =     -0.73683  eV     1   --> A'             
     e(  7 -  7) =      0.49505  eV     1   --> A'             
     e(  8 -  8) =      0.71993  eV     1   --> A''            
     e(  9 -  9) =      0.85293  eV     1   --> A'             
     e( 10 - 10) =      1.35664  eV     1   --> A'             

 **************************************************************************

 **************************************************************************

                    xk=(   0.00000,   0.06415,   0.08100  )

     Band symmetry, C_s (m)     point group:

     e(  1 -  1) =    -13.65883  eV     1   --> A'             
     e(  2 -  2) =     -9.13934  eV     1   --> A'             
     e(  3 -  3) =     -5.88000  eV     1   --> A'             
     e(  4 -  4) =     -3.69925  eV     1   --> A'             
     e(  5 -  5) =     -3.45059  eV     1   --> A''            
     e(  6 -  6) =     -0.81740  eV     1   --> A'             
     e(  7 -  7) =      0.50391  eV     1   --> A'             
     e(  8 -  8) =      0.66457  eV     1   --> A''            
     e(  9 -  9) =      0.82961  eV     1   --> A'             
     e( 10 - 10) =      1.34020  eV     1   --> A'             

 **************************************************************************

 **************************************************************************

                    xk=(   0.00000,   0.05132,   0.08424  )

     Band symmetry, C_s (m)     point group:

     e(  1 -  1) =    -13.67094  eV     1   --> A'             
     e(  2 -  2) =     -9.14259  eV     1   --> A'             
     e(  3 -  3) =     -5.88025  eV     1   --> A'             
     e(  4 -  4) =     -3.59614  eV     1   --> A'             
     e(  5 -  5) =     -3.42605  eV     1   --> A''            
     e(  6 -  6) =     -0.89460  eV     1   --> A'             
     e(  7 -  7) =      0.51515  eV     1   --> A'             
     e(  8 -  8) =      0.61847  eV     1   --> A''            
     e(  9 -  9) =      0.81122  eV     1   --> A'             
     e( 10 - 10) =      1.32630  eV     1   --> A'             

 **************************************************************************

 **************************************************************************

                    xk=(   0.00000,   0.03849,   0.08748  )

     Band symmetry, C_s (m)     point group:

     e(  1 -  1) =    -13.68036  eV     1   --> A'             
     e(  2 -  2) =     -9.14517  eV     1   --> A'             
     e(  3 -  3) =     -5.88047  eV     1   --> A'             
     e(  4 -  4) =     -3.50988  eV     1   --> A'             
     e(  5 -  5) =     -3.40650  eV     1   --> A''            
     e(  6 -  6) =     -0.96267  eV     1   --> A'             
     e(  7 -  7) =      0.52636  eV     1   --> A'             
     e(  8 -  8) =      0.58208  eV     1   --> A''            
     e(  9 -  9) =      0.79738  eV     1   --> A'             
     e( 10 - 10) =      1.31511  eV     1   --> A'             

 **************************************************************************

 **************************************************************************

                    xk=(   0.00000,   0.02566,   0.09072  )

     Band symmetry, C_s (m)     point group:

     e(  1 -  1) =    -13.68710  eV     1   --> A'             
     e(  2 -  2) =     -9.14709  eV     1   --> A'             
     e(  3 -  3) =     -5.88068  eV     1   --> A'             
     e(  4 -  4) =     -3.44435  eV     1   --> A'             
     e(  5 -  5) =     -3.39227  eV     1   --> A''            
     e(  6 -  6) =     -1.01621  eV     1   --> A'             
     e(  7 -  7) =      0.53568  eV     1   --> A'             
     e(  8 -  8) =      0.55579  eV     1   --> A''            
     e(  9 -  9) =      0.78777  eV     1   --> A'             
     e( 10 - 10) =      1.30687  eV     1   --> A'             

 **************************************************************************

 **************************************************************************

                    xk=(   0.00000,   0.01283,   0.09396  )

     Band symmetry, C_s (m)     point group:

     e(  1 -  1) =    -13.69114  eV     1   --> A'             
     e(  2 -  2) =     -9.14819  eV     1   --> A'             
     e(  3 -  3) =     -5.88073  eV     1   --> A'             
     e(  4 -  4) =     -3.40322  eV     1   --> A'             
     e(  5 -  5) =     -3.38362  eV     1   --> A''            
     e(  6 -  6) =     -1.05052  eV     1   --> A'             
     e(  7 -  7) =      0.53990  eV     1   --> A''            
     e(  8 -  8) =      0.54179  eV     1   --> A'             
     e(  9 -  9) =      0.78213  eV     1   --> A'             
     e( 10 - 10) =      1.30181  eV     1   --> A'             

 **************************************************************************

 **************************************************************************

                    xk=(   0.00000,   0.00000,   0.09720  )

     Band symmetry, C_s (m)     point group:

     e(  1 -  1) =    -13.69249  eV     1   --> A'             
     e(  2 -  2) =     -9.14856  eV     1   --> A'             
     e(  3 -  3) =     -5.88065  eV     1   --> A'             
     e(  4 -  4) =     -3.38918  eV     1   --> A'             
     e(  5 -  5) =     -3.38072  eV     1   --> A''            
     e(  6 -  6) =     -1.06235  eV     1   --> A'             
     e(  7 -  7) =      0.53459  eV     1   --> A''            
     e(  8 -  8) =      0.54391  eV     1   --> A'             
     e(  9 -  9) =      0.78028  eV     1   --> A'             
     e( 10 - 10) =      1.30010  eV     1   --> A'             

 **************************************************************************
 
     BANDS        :     10.20s CPU     12.33s WALL

 
   This run was terminated on:   0:12:20   2Apr2021            

=------------------------------------------------------------------------------=
   JOB DONE.
=------------------------------------------------------------------------------=
