
     Program PWSCF v.6.6 starts on  2Apr2021 at  0: 9:50 

     This program is part of the open-source Quantum ESPRESSO suite
     for quantum simulation of materials; please cite
         "P. Giannozzi et al., J. Phys.:Condens. Matter 21 395502 (2009);
         "P. Giannozzi et al., J. Phys.:Condens. Matter 29 465901 (2017);
          URL http://www.quantum-espresso.org", 
     in publications or presentations arising from this work. More details at
     http://www.quantum-espresso.org/quote

     Parallel version (MPI), running on     1 processors

     MPI processes distributed on     1 nodes
     Fft bands division:     nmany     =       1
     Waiting for input...
     Reading input from standard input
Warning: card &IONS ignored
Warning: card   ION_DYNAMICS='BFGS', ignored
Warning: card / ignored
Warning: card &CELL ignored
Warning: card   CELL_DYNAMICS='BFGS', ignored
Warning: card   CELL_DOFREE='ALL', ignored
Warning: card / ignored

     Current dimensions of program PWSCF are:
     Max number of different atomic species (ntypx) = 10
     Max number of k-points (npk) =  40000
     Max angular momentum in pseudopotentials (lmaxx) =  3

     Atomic positions and unit cell read from directory:
     /home/jesus/Documentos/Nanociencia_DFT/silicano.save/
     Atomic positions from file used, from input discarded
 

     Subspace diagonalization in iterative solution of the eigenvalue problem:
     a serial algorithm will be used

     Message from routine setup:
     using ibrav=0 with symmetry is DISCOURAGED, use correct ibrav instead
 
     G-vector sticks info
     --------------------
     sticks:   dense  smooth     PW     G-vecs:    dense   smooth      PW
     Sum         769     511    151                90847    49469    7907
 


     bravais-lattice index     =            0
     lattice parameter (alat)  =       7.3548  a.u.
     unit-cell volume          =    1772.2866 (a.u.)^3
     number of atoms/cell      =            4
     number of atomic types    =            2
     number of electrons       =        10.00
     number of Kohn-Sham states=           10
     kinetic-energy cutoff     =      35.0000  Ry
     charge density cutoff     =     210.0000  Ry
     Exchange-correlation= PBE
                           (   1   4   3   4   0   0   0)

     celldm(1)=   7.354814  celldm(2)=   0.000000  celldm(3)=   0.000000
     celldm(4)=   0.000000  celldm(5)=   0.000000  celldm(6)=   0.000000

     crystal axes: (cart. coord. in units of alat)
               a(1) = (   0.500000   0.866000   0.000000 )  
               a(2) = (  -0.500000   0.866000   0.000000 )  
               a(3) = (   0.000000   0.000000   5.144000 )  

     reciprocal axes: (cart. coord. in units 2 pi/alat)
               b(1) = (  1.000000  0.577367  0.000000 )  
               b(2) = ( -1.000000  0.577367  0.000000 )  
               b(3) = (  0.000000  0.000000  0.194401 )  


     PseudoPot. # 1 for Si read from file:
     /home/jesus/Nanociencia_DFT/pseudopotenciales/Si.pbe-n-rrkjus_psl.1.0.0.UPF
     MD5 check sum: fa25574f73a70a4139f2adfbefec430c
     Pseudo is Ultrasoft + core correction, Zval =  4.0
     Generated using "atomic" code by A. Dal Corso v.6.3
     Using radial grid of 1141 points,  6 beta functions with: 
                l(1) =   0
                l(2) =   0
                l(3) =   1
                l(4) =   1
                l(5) =   2
                l(6) =   2
     Q(r) pseudized with 0 coefficients 


     PseudoPot. # 2 for H  read from file:
     /home/jesus/Nanociencia_DFT/pseudopotenciales/H.pbe-rrkjus_psl.1.0.0.UPF
     MD5 check sum: 3f4114867bd07edc7f1424d066fc1888
     Pseudo is Ultrasoft, Zval =  1.0
     Generated using "atomic" code by A. Dal Corso v.6.3MaX
     Using radial grid of  929 points,  2 beta functions with: 
                l(1) =   0
                l(2) =   0
     Q(r) pseudized with 0 coefficients 


     atomic species   valence    mass     pseudopotential
        Si             4.00    28.08550     Si( 1.00)
        H              1.00     1.00800     H ( 1.00)

      2 Sym. Ops. (no inversion) found



   Cartesian axes

     site n.     atom                  positions (alat units)
         1           H   tau(   1) = (   0.0000000  -0.0000013   0.0008421  )
         2           Si  tau(   2) = (   0.0000000  -0.0001317   0.3858204  )
         3           Si  tau(   3) = (   0.0000000   0.5768880   0.5709962  )
         4           H   tau(   4) = (   0.0000000   0.5767570   0.9559093  )

     number of k points=    91  Methfessel-Paxton smearing, width (Ry)=  0.0100
                       cart. coord. in units 2pi/alat
        k(    1) = (   0.0000000   0.0000000   0.0000000), wk =   0.0219780
        k(    2) = (   0.0166667   0.0096228   0.0000000), wk =   0.0219780
        k(    3) = (   0.0333333   0.0192456   0.0000000), wk =   0.0219780
        k(    4) = (   0.0500000   0.0288684   0.0000000), wk =   0.0219780
        k(    5) = (   0.0666667   0.0384911   0.0000000), wk =   0.0219780
        k(    6) = (   0.0833333   0.0481139   0.0000000), wk =   0.0219780
        k(    7) = (   0.1000000   0.0577367   0.0000000), wk =   0.0219780
        k(    8) = (   0.1166667   0.0673595   0.0000000), wk =   0.0219780
        k(    9) = (   0.1333333   0.0769823   0.0000000), wk =   0.0219780
        k(   10) = (   0.1500000   0.0866051   0.0000000), wk =   0.0219780
        k(   11) = (   0.1666667   0.0962279   0.0000000), wk =   0.0219780
        k(   12) = (   0.1833333   0.1058507   0.0000000), wk =   0.0219780
        k(   13) = (   0.2000000   0.1154734   0.0000000), wk =   0.0219780
        k(   14) = (   0.2166667   0.1250962   0.0000000), wk =   0.0219780
        k(   15) = (   0.2333333   0.1347190   0.0000000), wk =   0.0219780
        k(   16) = (   0.2500000   0.1443418   0.0000000), wk =   0.0219780
        k(   17) = (   0.2666667   0.1539646   0.0000000), wk =   0.0219780
        k(   18) = (   0.2833333   0.1635874   0.0000000), wk =   0.0219780
        k(   19) = (   0.3000000   0.1732102   0.0000000), wk =   0.0219780
        k(   20) = (   0.3166667   0.1828329   0.0000000), wk =   0.0219780
        k(   21) = (   0.3333333   0.1924557   0.0000000), wk =   0.0219780
        k(   22) = (   0.3500000   0.2020785   0.0000000), wk =   0.0219780
        k(   23) = (   0.3666667   0.2117013   0.0000000), wk =   0.0219780
        k(   24) = (   0.3833333   0.2213241   0.0000000), wk =   0.0219780
        k(   25) = (   0.4000000   0.2309469   0.0000000), wk =   0.0219780
        k(   26) = (   0.4166667   0.2405697   0.0000000), wk =   0.0219780
        k(   27) = (   0.4333333   0.2501925   0.0000000), wk =   0.0219780
        k(   28) = (   0.4500000   0.2598152   0.0000000), wk =   0.0219780
        k(   29) = (   0.4666667   0.2694380   0.0000000), wk =   0.0219780
        k(   30) = (   0.4833333   0.2790608   0.0000000), wk =   0.0219780
        k(   31) = (   0.5000000   0.2886836   0.0000000), wk =   0.0219780
        k(   32) = (   0.4833333   0.2918899   0.0000000), wk =   0.0219780
        k(   33) = (   0.4666667   0.2950962   0.0000000), wk =   0.0219780
        k(   34) = (   0.4500000   0.2983025   0.0000000), wk =   0.0219780
        k(   35) = (   0.4333333   0.3015089   0.0000000), wk =   0.0219780
        k(   36) = (   0.4166667   0.3047152   0.0000000), wk =   0.0219780
        k(   37) = (   0.4000000   0.3079215   0.0000000), wk =   0.0219780
        k(   38) = (   0.3833333   0.3111278   0.0000000), wk =   0.0219780
        k(   39) = (   0.3666667   0.3143341   0.0000000), wk =   0.0219780
        k(   40) = (   0.3500000   0.3175404   0.0000000), wk =   0.0219780
        k(   41) = (   0.3333333   0.3207467   0.0000000), wk =   0.0219780
        k(   42) = (   0.3166667   0.3239530   0.0000000), wk =   0.0219780
        k(   43) = (   0.3000000   0.3271594   0.0000000), wk =   0.0219780
        k(   44) = (   0.2833333   0.3303657   0.0000000), wk =   0.0219780
        k(   45) = (   0.2666667   0.3335720   0.0000000), wk =   0.0219780
        k(   46) = (   0.2500000   0.3367783   0.0000000), wk =   0.0219780
        k(   47) = (   0.2333333   0.3399846   0.0000000), wk =   0.0219780
        k(   48) = (   0.2166667   0.3431909   0.0000000), wk =   0.0219780
        k(   49) = (   0.2000000   0.3463972   0.0000000), wk =   0.0219780
        k(   50) = (   0.1833333   0.3496035   0.0000000), wk =   0.0219780
        k(   51) = (   0.1666667   0.3528099   0.0000000), wk =   0.0219780
        k(   52) = (   0.1500000   0.3560162   0.0000000), wk =   0.0219780
        k(   53) = (   0.1333333   0.3592225   0.0000000), wk =   0.0219780
        k(   54) = (   0.1166667   0.3624288   0.0000000), wk =   0.0219780
        k(   55) = (   0.1000000   0.3656351   0.0000000), wk =   0.0219780
        k(   56) = (   0.0833333   0.3688414   0.0000000), wk =   0.0219780
        k(   57) = (   0.0666667   0.3720477   0.0000000), wk =   0.0219780
        k(   58) = (   0.0500000   0.3752540   0.0000000), wk =   0.0219780
        k(   59) = (   0.0333333   0.3784604   0.0000000), wk =   0.0219780
        k(   60) = (   0.0166667   0.3816667   0.0000000), wk =   0.0219780
        k(   61) = (   0.0000000   0.3848730   0.0000000), wk =   0.0219780
        k(   62) = (   0.0000000   0.3720439   0.0032400), wk =   0.0219780
        k(   63) = (   0.0000000   0.3592148   0.0064800), wk =   0.0219780
        k(   64) = (   0.0000000   0.3463857   0.0097201), wk =   0.0219780
        k(   65) = (   0.0000000   0.3335566   0.0129601), wk =   0.0219780
        k(   66) = (   0.0000000   0.3207275   0.0162001), wk =   0.0219780
        k(   67) = (   0.0000000   0.3078984   0.0194401), wk =   0.0219780
        k(   68) = (   0.0000000   0.2950693   0.0226801), wk =   0.0219780
        k(   69) = (   0.0000000   0.2822402   0.0259202), wk =   0.0219780
        k(   70) = (   0.0000000   0.2694111   0.0291602), wk =   0.0219780
        k(   71) = (   0.0000000   0.2565820   0.0324002), wk =   0.0219780
        k(   72) = (   0.0000000   0.2437529   0.0356402), wk =   0.0219780
        k(   73) = (   0.0000000   0.2309238   0.0388802), wk =   0.0219780
        k(   74) = (   0.0000000   0.2180947   0.0421203), wk =   0.0219780
        k(   75) = (   0.0000000   0.2052656   0.0453603), wk =   0.0219780
        k(   76) = (   0.0000000   0.1924365   0.0486003), wk =   0.0219780
        k(   77) = (   0.0000000   0.1796074   0.0518403), wk =   0.0219780
        k(   78) = (   0.0000000   0.1667783   0.0550804), wk =   0.0219780
        k(   79) = (   0.0000000   0.1539492   0.0583204), wk =   0.0219780
        k(   80) = (   0.0000000   0.1411201   0.0615604), wk =   0.0219780
        k(   81) = (   0.0000000   0.1282910   0.0648004), wk =   0.0219780
        k(   82) = (   0.0000000   0.1154619   0.0680404), wk =   0.0219780
        k(   83) = (   0.0000000   0.1026328   0.0712805), wk =   0.0219780
        k(   84) = (   0.0000000   0.0898037   0.0745205), wk =   0.0219780
        k(   85) = (   0.0000000   0.0769746   0.0777605), wk =   0.0219780
        k(   86) = (   0.0000000   0.0641455   0.0810005), wk =   0.0219780
        k(   87) = (   0.0000000   0.0513164   0.0842405), wk =   0.0219780
        k(   88) = (   0.0000000   0.0384873   0.0874806), wk =   0.0219780
        k(   89) = (   0.0000000   0.0256582   0.0907206), wk =   0.0219780
        k(   90) = (   0.0000000   0.0128291   0.0939606), wk =   0.0219780
        k(   91) = (   0.0000000   0.0000000   0.0972006), wk =   0.0219780

     Dense  grid:    90847 G-vectors     FFT dimensions: (  36,  36, 180)

     Smooth grid:    49469 G-vectors     FFT dimensions: (  27,  27, 144)

     Estimated max dynamical RAM per process >     298.57 MB

     The potential is recalculated from file :
     /home/jesus/Documentos/Nanociencia_DFT/silicano.save/charge-density


     negative rho (up, down):  1.022E-04 0.000E+00
     Starting wfcs are   10 randomized atomic wfcs

     Band Structure Calculation
     Davidson diagonalization with overlap
     c_bands:  1 eigenvalues not converged
     c_bands:  1 eigenvalues not converged

     ethr =  1.00E-08,  avg # of iterations = 46.8

     total cpu time spent up to now is       91.2 secs

     End of band structure calculation

          k = 0.0000 0.0000 0.0000 (  6083 PWs)   bands (ev):

   -13.6925  -9.1484  -5.8807  -3.3892  -3.3807  -1.0623   0.5346   0.5439
     0.7933   1.2146

          k = 0.0167 0.0096 0.0000 (  6110 PWs)   bands (ev):

   -13.6895  -9.1477  -5.8807  -3.4149  -3.3929  -1.0359   0.5315   0.5542
     0.7974   1.2190

          k = 0.0333 0.0192 0.0000 (  6120 PWs)   bands (ev):

   -13.6804  -9.1452  -5.8805  -3.5040  -3.4126  -0.9625   0.5195   0.5892
     0.8101   1.2321

          k = 0.0500 0.0289 0.0000 (  6126 PWs)   bands (ev):

   -13.6652  -9.1411  -5.8801  -3.6402  -3.4438  -0.8565   0.5030   0.6472
     0.8323   1.2528

          k = 0.0667 0.0385 0.0000 (  6132 PWs)   bands (ev):

   -13.6441  -9.1355  -5.8797  -3.8103  -3.4856  -0.7366   0.4894   0.7266
     0.8652   1.2805

          k = 0.0833 0.0481 0.0000 (  6126 PWs)   bands (ev):

   -13.6169  -9.1287  -5.8794  -4.0032  -3.5367  -0.6225   0.4878   0.8256
     0.9103   1.3146

          k = 0.1000 0.0577 0.0000 (  6134 PWs)   bands (ev):

   -13.5838  -9.1212  -5.8795  -4.2105  -3.5955  -0.5326   0.5077   0.9422
     0.9695   1.3548

          k = 0.1167 0.0674 0.0000 (  6146 PWs)   bands (ev):

   -13.5447  -9.1132  -5.8801  -4.4261  -3.6603  -0.4797   0.5538   1.0443
     1.0744   1.4022

          k = 0.1333 0.0770 0.0000 (  6172 PWs)   bands (ev):

   -13.4998  -9.1053  -5.8817  -4.6454  -3.7297  -0.4657   0.6214   1.1338
     1.2200   1.4591

          k = 0.1500 0.0866 0.0000 (  6164 PWs)   bands (ev):

   -13.4490  -9.0981  -5.8843  -4.8645  -3.8022  -0.4832   0.6999   1.2302
     1.3767   1.5310

          k = 0.1667 0.0962 0.0000 (  6184 PWs)   bands (ev):

   -13.3925  -9.0925  -5.8891  -5.0804  -3.8766  -0.5220   0.7797   1.3183
     1.5421   1.6254

          k = 0.1833 0.1059 0.0000 (  6198 PWs)   bands (ev):

   -13.3304  -9.0894  -5.8973  -5.2892  -3.9517  -0.5737   0.8567   1.3841
     1.7135   1.7434

          k = 0.2000 0.1155 0.0000 (  6188 PWs)   bands (ev):

   -13.2627  -9.0898  -5.9119  -5.4860  -4.0266  -0.6322   0.9295   1.4234
     1.8722   1.8886

          k = 0.2167 0.1251 0.0000 (  6186 PWs)   bands (ev):

   -13.1896  -9.0951  -5.9426  -5.6592  -4.1004  -0.6934   0.9978   1.4363
     1.9956   2.0628

          k = 0.2333 0.1347 0.0000 (  6194 PWs)   bands (ev):

   -13.1113  -9.1067  -6.0148  -5.7816  -4.1726  -0.7546   1.0609   1.4217
     2.0941   2.2328

          k = 0.2500 0.1443 0.0000 (  6194 PWs)   bands (ev):

   -13.0279  -9.1262  -6.1391  -5.8406  -4.2423  -0.8140   1.1165   1.3812
     2.1588   2.3490

          k = 0.2667 0.1540 0.0000 (  6198 PWs)   bands (ev):

   -12.9397  -9.1551  -6.2801  -5.8700  -4.3093  -0.8703   1.1578   1.3243
     2.2093   2.4537

          k = 0.2833 0.1636 0.0000 (  6196 PWs)   bands (ev):

   -12.8469  -9.1950  -6.4149  -5.8905  -4.3730  -0.9227   1.1559   1.2852
     2.2639   2.5681

          k = 0.3000 0.1732 0.0000 (  6208 PWs)   bands (ev):

   -12.7500  -9.2468  -6.5359  -5.9090  -4.4331  -0.9704   1.0863   1.2945
     2.3290   2.6891

          k = 0.3167 0.1828 0.0000 (  6204 PWs)   bands (ev):

   -12.6492  -9.3110  -6.6401  -5.9274  -4.4892  -1.0133   0.9907   1.3163
     2.4064   2.8167

          k = 0.3333 0.1925 0.0000 (  6212 PWs)   bands (ev):

   -12.5452  -9.3876  -6.7266  -5.9463  -4.5412  -1.0511   0.8895   1.3346
     2.4965   2.9230

          k = 0.3500 0.2021 0.0000 (  6220 PWs)   bands (ev):

   -12.4387  -9.4755  -6.7956  -5.9660  -4.5888  -1.0838   0.7896   1.3470
     2.5987   2.9659

          k = 0.3667 0.2117 0.0000 (  6220 PWs)   bands (ev):

   -12.3306  -9.5728  -6.8485  -5.9863  -4.6318  -1.1116   0.6945   1.3537
     2.7125   2.9936

          k = 0.3833 0.2213 0.0000 (  6212 PWs)   bands (ev):

   -12.2222  -9.6768  -6.8872  -6.0066  -4.6700  -1.1347   0.6064   1.3558
     2.8369   3.0102

          k = 0.4000 0.2309 0.0000 (  6204 PWs)   bands (ev):

   -12.1151  -9.7841  -6.9139  -6.0267  -4.7034  -1.1534   0.5271   1.3547
     2.9710   3.0188

          k = 0.4167 0.2406 0.0000 (  6218 PWs)   bands (ev):

   -12.0118  -9.8909  -6.9312  -6.0457  -4.7318  -1.1682   0.4579   1.3514
     3.0224   3.1139

          k = 0.4333 0.2502 0.0000 (  6210 PWs)   bands (ev):

   -11.9155  -9.9923  -6.9413  -6.0628  -4.7551  -1.1794   0.3998   1.3473
     3.0229   3.2647

          k = 0.4500 0.2598 0.0000 (  6190 PWs)   bands (ev):

   -11.8307 -10.0824  -6.9465  -6.0773  -4.7734  -1.1876   0.3537   1.3431
     3.0219   3.4226

          k = 0.4667 0.2694 0.0000 (  6190 PWs)   bands (ev):

   -11.7629 -10.1547  -6.9488  -6.0884  -4.7864  -1.1931   0.3203   1.3396
     3.0205   3.5866

          k = 0.4833 0.2791 0.0000 (  6192 PWs)   bands (ev):

   -11.7186 -10.2021  -6.9496  -6.0953  -4.7943  -1.1962   0.3000   1.3373
     3.0194   3.7556

          k = 0.5000 0.2887 0.0000 (  6206 PWs)   bands (ev):

   -11.7032 -10.2186  -6.9498  -6.0978  -4.7969  -1.1972   0.2932   1.3365
     3.0190   3.9336

          k = 0.4833 0.2919 0.0000 (  6202 PWs)   bands (ev):

   -11.7091 -10.2115  -6.9491  -6.0969  -4.8028  -1.1866   0.2970   1.3372
     3.0080   3.8176

          k = 0.4667 0.2951 0.0000 (  6202 PWs)   bands (ev):

   -11.7264 -10.1905  -6.9471  -6.0944  -4.8201  -1.1548   0.3085   1.3392
     2.9755   3.7192

          k = 0.4500 0.2983 0.0000 (  6200 PWs)   bands (ev):

   -11.7539 -10.1571  -6.9434  -6.0904  -4.8480  -1.1028   0.3279   1.3421
     2.9237   3.6334

          k = 0.4333 0.3015 0.0000 (  6208 PWs)   bands (ev):

   -11.7901 -10.1130  -6.9377  -6.0853  -4.8853  -1.0320   0.3553   1.3454
     2.8557   3.5596

          k = 0.4167 0.3047 0.0000 (  6208 PWs)   bands (ev):

   -11.8330 -10.0606  -6.9293  -6.0794  -4.9303  -0.9441   0.3911   1.3483
     2.7759   3.4964

          k = 0.4000 0.3079 0.0000 (  6203 PWs)   bands (ev):

   -11.8808 -10.0020  -6.9177  -6.0732  -4.9811  -0.8410   0.4359   1.3499
     2.6887   3.4416

          k = 0.3833 0.3111 0.0000 (  6213 PWs)   bands (ev):

   -11.9320  -9.9395  -6.9022  -6.0674  -5.0359  -0.7250   0.4900   1.3490
     2.5980   3.3939

          k = 0.3667 0.3143 0.0000 (  6216 PWs)   bands (ev):

   -11.9851  -9.8748  -6.8822  -6.0624  -5.0927  -0.5983   0.5543   1.3443
     2.5068   3.3518

          k = 0.3500 0.3175 0.0000 (  6214 PWs)   bands (ev):

   -12.0390  -9.8100  -6.8570  -6.0589  -5.1494  -0.4631   0.6294   1.3347
     2.4179   3.3147

          k = 0.3333 0.3207 0.0000 (  6218 PWs)   bands (ev):

   -12.0927  -9.7463  -6.8263  -6.0575  -5.2040  -0.3220   0.7163   1.3186
     2.3332   3.2818

          k = 0.3167 0.3240 0.0000 (  6210 PWs)   bands (ev):

   -12.1455  -9.6853  -6.7899  -6.0587  -5.2547  -0.1774   0.8158   1.2950
     2.2545   3.2525

          k = 0.3000 0.3272 0.0000 (  6206 PWs)   bands (ev):

   -12.1968  -9.6279  -6.7481  -6.0629  -5.2993  -0.0317   0.9281   1.2629
     2.1830   3.2257

          k = 0.2833 0.3304 0.0000 (  6206 PWs)   bands (ev):

   -12.2460  -9.5752  -6.7018  -6.0701  -5.3360   0.1128   1.0508   1.2241
     2.1200   3.1957

          k = 0.2667 0.3336 0.0000 (  6215 PWs)   bands (ev):

   -12.2928  -9.5276  -6.6526  -6.0797  -5.3631   0.2540   1.1327   1.2283
     2.0661   3.0003

          k = 0.2500 0.3368 0.0000 (  6217 PWs)   bands (ev):

   -12.3368  -9.4857  -6.6031  -6.0900  -5.3789   0.3903   1.0813   1.3649
     2.0217   2.7251

          k = 0.2333 0.3400 0.0000 (  6217 PWs)   bands (ev):

   -12.3777  -9.4495  -6.5575  -6.0981  -5.3822   0.5203   0.9995   1.5245
     1.9866   2.4651

          k = 0.2167 0.3432 0.0000 (  6209 PWs)   bands (ev):

   -12.4152  -9.4191  -6.5210  -6.1004  -5.3717   0.6416   0.8989   1.6788
     1.9576   2.2486

          k = 0.2000 0.3464 0.0000 (  6211 PWs)   bands (ev):

   -12.4492  -9.3942  -6.4985  -6.0936  -5.3463   0.7281   0.8026   1.7594
     1.9269   2.1566

          k = 0.1833 0.3496 0.0000 (  6206 PWs)   bands (ev):

   -12.4796  -9.3746  -6.4922  -6.0771  -5.3052   0.6123   0.8745   1.6690
     1.9312   2.2529

          k = 0.1667 0.3528 0.0000 (  6205 PWs)   bands (ev):

   -12.5061  -9.3598  -6.5001  -6.0542  -5.2482   0.4416   0.9659   1.5340
     1.9500   2.4308

          k = 0.1500 0.3560 0.0000 (  6203 PWs)   bands (ev):

   -12.5287  -9.3494  -6.5181  -6.0294  -5.1763   0.2506   1.0439   1.4156
     1.9794   2.6229

          k = 0.1333 0.3592 0.0000 (  6206 PWs)   bands (ev):

   -12.5473  -9.3430  -6.5422  -6.0064  -5.0920   0.0488   1.1016   1.3240
     2.0222   2.7798

          k = 0.1167 0.3624 0.0000 (  6202 PWs)   bands (ev):

   -12.5618  -9.3402  -6.5693  -5.9870  -4.9988  -0.1552   1.1240   1.2712
     2.0781   2.8414

          k = 0.1000 0.3656 0.0000 (  6206 PWs)   bands (ev):

   -12.5721  -9.3404  -6.5972  -5.9718  -4.9013  -0.3534   1.0985   1.2674
     2.1447   2.8533

          k = 0.0833 0.3688 0.0000 (  6210 PWs)   bands (ev):

   -12.5782  -9.3433  -6.6245  -5.9604  -4.8047  -0.5386   1.0535   1.2835
     2.2178   2.8572

          k = 0.0667 0.3720 0.0000 (  6213 PWs)   bands (ev):

   -12.5800  -9.3487  -6.6502  -5.9526  -4.7148  -0.7042   1.0093   1.2999
     2.2924   2.8630

          k = 0.0500 0.3753 0.0000 (  6199 PWs)   bands (ev):

   -12.5776  -9.3562  -6.6738  -5.9477  -4.6375  -0.8436   0.9703   1.3129
     2.3629   2.8734

          k = 0.0333 0.3785 0.0000 (  6207 PWs)   bands (ev):

   -12.5708  -9.3656  -6.6946  -5.9455  -4.5789  -0.9507   0.9376   1.3222
     2.4238   2.8891

          k = 0.0167 0.3817 0.0000 (  6206 PWs)   bands (ev):

   -12.5597  -9.3769  -6.7124  -5.9456  -4.5444  -1.0199   0.9113   1.3286
     2.4698   2.9083

          k = 0.0000 0.3849 0.0000 (  6212 PWs)   bands (ev):

   -12.5443  -9.3899  -6.7270  -5.9479  -4.5380  -1.0474   0.8913   1.3323
     2.4966   2.9218

          k = 0.0000 0.3720 0.0032 (  6202 PWs)   bands (ev):

   -12.6140  -9.3372  -6.6715  -5.9351  -4.5037  -1.0228   0.9587   1.3210
     2.4336   2.8826

          k = 0.0000 0.3592 0.0065 (  6204 PWs)   bands (ev):

   -12.6824  -9.2900  -6.6082  -5.9226  -4.4676  -0.9958   1.0250   1.3074
     2.3758   2.8340

          k = 0.0000 0.3464 0.0097 (  6201 PWs)   bands (ev):

   -12.7493  -9.2483  -6.5370  -5.9104  -4.4297  -0.9667   1.0872   1.2932
     2.3229   2.7093

          k = 0.0000 0.3336 0.0130 (  6190 PWs)   bands (ev):

   -12.8145  -9.2122  -6.4582  -5.8981  -4.3899  -0.9353   1.1386   1.2837
     2.2750   2.6362

          k = 0.0000 0.3207 0.0162 (  6195 PWs)   bands (ev):

   -12.8778  -9.1816  -6.3727  -5.8854  -4.3486  -0.9019   1.1640   1.2925
     2.2315   2.5660

          k = 0.0000 0.3079 0.0194 (  6193 PWs)   bands (ev):

   -12.9393  -9.1561  -6.2815  -5.8713  -4.3056  -0.8665   1.1568   1.3244
     2.1919   2.5383

          k = 0.0000 0.2951 0.0227 (  6180 PWs)   bands (ev):

   -12.9986  -9.1356  -6.1873  -5.8536  -4.2613  -0.8293   1.1316   1.3630
     2.1550   2.4320

          k = 0.0000 0.2822 0.0259 (  6184 PWs)   bands (ev):

   -13.0559  -9.1195  -6.0952  -5.8278  -4.2155  -0.7906   1.0981   1.3966
     2.1182   2.3379

          k = 0.0000 0.2694 0.0292 (  6180 PWs)   bands (ev):

   -13.1110  -9.1073  -6.0157  -5.7838  -4.1686  -0.7507   1.0601   1.4204
     2.0779   2.2289

          k = 0.0000 0.2566 0.0324 (  6184 PWs)   bands (ev):

   -13.1638  -9.0987  -5.9609  -5.7102  -4.1207  -0.7100   1.0188   1.4322
     2.0288   2.1160

          k = 0.0000 0.2438 0.0356 (  6176 PWs)   bands (ev):

   -13.2143  -9.0931  -5.9297  -5.6084  -4.0718  -0.6690   0.9749   1.4315
     1.9677   2.0005

          k = 0.0000 0.2309 0.0389 (  6181 PWs)   bands (ev):

   -13.2625  -9.0901  -5.9121  -5.4892  -4.0223  -0.6283   0.9289   1.4183
     1.8838   1.8956

          k = 0.0000 0.2181 0.0421 (  6176 PWs)   bands (ev):

   -13.3082  -9.0893  -5.9013  -5.3599  -3.9723  -0.5889   0.8809   1.3928
     1.7669   1.8179

          k = 0.0000 0.2053 0.0454 (  6164 PWs)   bands (ev):

   -13.3515  -9.0903  -5.8941  -5.2242  -3.9221  -0.5518   0.8310   1.3552
     1.6511   1.7410

          k = 0.0000 0.1924 0.0486 (  6169 PWs)   bands (ev):

   -13.3924  -9.0927  -5.8892  -5.0840  -3.8719  -0.5185   0.7794   1.3062
     1.5370   1.6703

          k = 0.0000 0.1796 0.0518 (  6168 PWs)   bands (ev):

   -13.4307  -9.0962  -5.8858  -4.9408  -3.8221  -0.4910   0.7266   1.2479
     1.4257   1.6093

          k = 0.0000 0.1668 0.0551 (  6162 PWs)   bands (ev):

   -13.4665  -9.1005  -5.8834  -4.7957  -3.7729  -0.4716   0.6736   1.1843
     1.3179   1.5582

          k = 0.0000 0.1539 0.0583 (  6152 PWs)   bands (ev):

   -13.4997  -9.1054  -5.8817  -4.6495  -3.7246  -0.4632   0.6224   1.1202
     1.2144   1.5156

          k = 0.0000 0.1411 0.0616 (  6150 PWs)   bands (ev):

   -13.5303  -9.1106  -5.8806  -4.5033  -3.6778  -0.4690   0.5761   1.0597
     1.1158   1.4796

          k = 0.0000 0.1283 0.0648 (  6145 PWs)   bands (ev):

   -13.5583  -9.1159  -5.8799  -4.3581  -3.6328  -0.4915   0.5381   1.0050
     1.0228   1.4485

          k = 0.0000 0.1155 0.0680 (  6141 PWs)   bands (ev):

   -13.5837  -9.1213  -5.8796  -4.2151  -3.5900  -0.5318   0.5111   0.9360
     0.9572   1.4212

          k = 0.0000 0.1026 0.0713 (  6132 PWs)   bands (ev):

   -13.6065  -9.1264  -5.8795  -4.0759  -3.5499  -0.5887   0.4959   0.8563
     0.9162   1.3970

          k = 0.0000 0.0898 0.0745 (  6125 PWs)   bands (ev):

   -13.6266  -9.1311  -5.8796  -3.9420  -3.5130  -0.6587   0.4914   0.7840
     0.8816   1.3756

          k = 0.0000 0.0770 0.0778 (  6121 PWs)   bands (ev):

   -13.6440  -9.1355  -5.8797  -3.8156  -3.4797  -0.7368   0.4951   0.7199
     0.8529   1.3566

          k = 0.0000 0.0641 0.0810 (  6121 PWs)   bands (ev):

   -13.6588  -9.1393  -5.8800  -3.6992  -3.4506  -0.8174   0.5039   0.6646
     0.8296   1.3402

          k = 0.0000 0.0513 0.0842 (  6121 PWs)   bands (ev):

   -13.6709  -9.1426  -5.8803  -3.5961  -3.4260  -0.8946   0.5152   0.6185
     0.8112   1.3263

          k = 0.0000 0.0385 0.0875 (  6119 PWs)   bands (ev):

   -13.6804  -9.1452  -5.8805  -3.5099  -3.4065  -0.9627   0.5264   0.5821
     0.7974   1.3151

          k = 0.0000 0.0257 0.0907 (  6127 PWs)   bands (ev):

   -13.6871  -9.1471  -5.8807  -3.4444  -3.3923  -1.0162   0.5357   0.5558
     0.7878   1.3069

          k = 0.0000 0.0128 0.0940 (  6112 PWs)   bands (ev):

   -13.6911  -9.1482  -5.8807  -3.4032  -3.3836  -1.0505   0.5399   0.5418
     0.7821   1.3018

          k = 0.0000 0.0000 0.0972 (  6096 PWs)   bands (ev):

   -13.6925  -9.1486  -5.8806  -3.3892  -3.3807  -1.0623   0.5346   0.5439
     0.7803   1.3001

     Writing output data file /home/jesus/Documentos/Nanociencia_DFT/silicano.save/
 
     init_run     :      0.96s CPU      1.17s WALL (       1 calls)
     electrons    :     86.69s CPU     88.97s WALL (       1 calls)

     Called by init_run:
     wfcinit      :      0.00s CPU      0.00s WALL (       1 calls)
     potinit      :      0.12s CPU      0.20s WALL (       1 calls)
     hinit0       :      0.50s CPU      0.52s WALL (       1 calls)

     Called by electrons:
     c_bands      :     86.68s CPU     88.97s WALL (       1 calls)
     v_of_rho     :      0.10s CPU      0.12s WALL (       1 calls)
     newd         :      0.23s CPU      0.33s WALL (       1 calls)

     Called by c_bands:
     init_us_2    :      0.19s CPU      0.24s WALL (      91 calls)
     cegterg      :     81.40s CPU     81.62s WALL (     254 calls)

     Called by *egterg:
     cdiaghg      :      0.80s CPU      0.80s WALL (    4354 calls)
     h_psi        :     70.78s CPU     70.95s WALL (    4608 calls)
     s_psi        :      3.01s CPU      3.02s WALL (    4608 calls)
     g_psi        :      0.42s CPU      0.43s WALL (    4263 calls)

     Called by h_psi:
     h_psi:calbec :      3.30s CPU      3.31s WALL (    4608 calls)
     vloc_psi     :     63.99s CPU     64.14s WALL (    4608 calls)
     add_vuspsi   :      3.11s CPU      3.13s WALL (    4608 calls)

     General routines
     calbec       :      3.28s CPU      3.29s WALL (    4608 calls)
     fft          :      0.04s CPU      0.06s WALL (      13 calls)
     ffts         :      0.00s CPU      0.00s WALL (       1 calls)
     fftw         :     56.45s CPU     56.59s WALL (   46222 calls)
     interpolate  :      0.01s CPU      0.01s WALL (       1 calls)
     davcio       :      0.09s CPU      2.08s WALL (     182 calls)
 
     Parallel routines
 
     PWSCF        :   1m28.57s CPU   1m31.32s WALL

 
   This run was terminated on:   0:11:22   2Apr2021            

=------------------------------------------------------------------------------=
   JOB DONE.
=------------------------------------------------------------------------------=
