
     Program PWSCF v.6.6 starts on 31Mar2021 at 21:18:54 

     This program is part of the open-source Quantum ESPRESSO suite
     for quantum simulation of materials; please cite
         "P. Giannozzi et al., J. Phys.:Condens. Matter 21 395502 (2009);
         "P. Giannozzi et al., J. Phys.:Condens. Matter 29 465901 (2017);
          URL http://www.quantum-espresso.org", 
     in publications or presentations arising from this work. More details at
     http://www.quantum-espresso.org/quote

     Parallel version (MPI), running on     1 processors

     MPI processes distributed on     1 nodes
     Fft bands division:     nmany     =       1
     Waiting for input...
     Reading input from standard input
Warning: card &IONS ignored
Warning: card   ION_DYNAMICS='BFGS', ignored
Warning: card / ignored
Warning: card &CELL ignored
Warning: card   CELL_DYNAMICS='BFGS', ignored
Warning: card   CELL_DOFREE='ALL', ignored
Warning: card / ignored

     Current dimensions of program PWSCF are:
     Max number of different atomic species (ntypx) = 10
     Max number of k-points (npk) =  40000
     Max angular momentum in pseudopotentials (lmaxx) =  3

     Atomic positions and unit cell read from directory:
     /home/jesus/Documentos/Nanociencia_DFT/silicano.save/
     Atomic positions from file used, from input discarded
 
     file H.pbe-kjpaw_psl.1.0.0.UPF: wavefunction(s)  1S renormalized

     Subspace diagonalization in iterative solution of the eigenvalue problem:
     a serial algorithm will be used

     Message from routine setup:
     using ibrav=0 with symmetry is DISCOURAGED, use correct ibrav instead
 
     G-vector sticks info
     --------------------
     sticks:   dense  smooth     PW     G-vecs:    dense   smooth      PW
     Sum         769     517    151                91447    49847    7931
 


     bravais-lattice index     =            0
     lattice parameter (alat)  =       7.3699  a.u.
     unit-cell volume          =    1783.2379 (a.u.)^3
     number of atoms/cell      =            4
     number of atomic types    =            2
     number of electrons       =        10.00
     number of Kohn-Sham states=           10
     kinetic-energy cutoff     =      35.0000  Ry
     charge density cutoff     =     210.0000  Ry
     Exchange-correlation= SLA PW PBX PBC
                           (   1   4   3   4   0   0   0)

     celldm(1)=   7.369932  celldm(2)=   0.000000  celldm(3)=   0.000000
     celldm(4)=   0.000000  celldm(5)=   0.000000  celldm(6)=   0.000000

     crystal axes: (cart. coord. in units of alat)
               a(1) = (   0.500000   0.866000   0.000000 )  
               a(2) = (  -0.500000   0.866000   0.000000 )  
               a(3) = (   0.000000   0.000000   5.144000 )  

     reciprocal axes: (cart. coord. in units 2 pi/alat)
               b(1) = (  1.000000  0.577367  0.000000 )  
               b(2) = ( -1.000000  0.577367  0.000000 )  
               b(3) = (  0.000000  0.000000  0.194401 )  


     PseudoPot. # 1 for Si read from file:
     /home/jesus/Nanociencia_DFT/pseudopotenciales/Si.pbe-n-rrkjus_psl.1.0.0.UPF
     MD5 check sum: fa25574f73a70a4139f2adfbefec430c
     Pseudo is Ultrasoft + core correction, Zval =  4.0
     Generated using "atomic" code by A. Dal Corso v.6.3
     Using radial grid of 1141 points,  6 beta functions with: 
                l(1) =   0
                l(2) =   0
                l(3) =   1
                l(4) =   1
                l(5) =   2
                l(6) =   2
     Q(r) pseudized with 0 coefficients 


     PseudoPot. # 2 for H  read from file:
     /home/jesus/Nanociencia_DFT/pseudopotenciales/H.pbe-kjpaw_psl.1.0.0.UPF
     MD5 check sum: d81a744832360e4a8af0b0b5b123bc2a
     Pseudo is Projector augmented-wave, Zval =  1.0
     Generated using "atomic" code by A. Dal Corso v.6.3MaX
     Shape of augmentation charge: PSQ
     Using radial grid of  929 points,  2 beta functions with: 
                l(1) =   0
                l(2) =   0
     Q(r) pseudized with 0 coefficients 


     atomic species   valence    mass     pseudopotential
        Si             4.00    28.08550     Si( 1.00)
        H              1.00     1.00800     H ( 1.00)

      2 Sym. Ops. (no inversion) found



   Cartesian axes

     site n.     atom                  positions (alat units)
         1           H   tau(   1) = (   0.0000000  -0.0000013   0.0001813  )
         2           Si  tau(   2) = (   0.0000000  -0.0001369   0.3859600  )
         3           Si  tau(   3) = (   0.0000000   0.5768931   0.5708596  )
         4           H   tau(   4) = (   0.0000000   0.5767572   0.9565671  )

     number of k points=    91  Methfessel-Paxton smearing, width (Ry)=  0.0100
                       cart. coord. in units 2pi/alat
        k(    1) = (   0.0000000   0.0000000   0.0000000), wk =   0.0219780
        k(    2) = (   0.0166667   0.0096228   0.0000000), wk =   0.0219780
        k(    3) = (   0.0333333   0.0192456   0.0000000), wk =   0.0219780
        k(    4) = (   0.0500000   0.0288684   0.0000000), wk =   0.0219780
        k(    5) = (   0.0666667   0.0384911   0.0000000), wk =   0.0219780
        k(    6) = (   0.0833333   0.0481139   0.0000000), wk =   0.0219780
        k(    7) = (   0.1000000   0.0577367   0.0000000), wk =   0.0219780
        k(    8) = (   0.1166667   0.0673595   0.0000000), wk =   0.0219780
        k(    9) = (   0.1333333   0.0769823   0.0000000), wk =   0.0219780
        k(   10) = (   0.1500000   0.0866051   0.0000000), wk =   0.0219780
        k(   11) = (   0.1666667   0.0962279   0.0000000), wk =   0.0219780
        k(   12) = (   0.1833333   0.1058507   0.0000000), wk =   0.0219780
        k(   13) = (   0.2000000   0.1154734   0.0000000), wk =   0.0219780
        k(   14) = (   0.2166667   0.1250962   0.0000000), wk =   0.0219780
        k(   15) = (   0.2333333   0.1347190   0.0000000), wk =   0.0219780
        k(   16) = (   0.2500000   0.1443418   0.0000000), wk =   0.0219780
        k(   17) = (   0.2666667   0.1539646   0.0000000), wk =   0.0219780
        k(   18) = (   0.2833333   0.1635874   0.0000000), wk =   0.0219780
        k(   19) = (   0.3000000   0.1732102   0.0000000), wk =   0.0219780
        k(   20) = (   0.3166667   0.1828329   0.0000000), wk =   0.0219780
        k(   21) = (   0.3333333   0.1924557   0.0000000), wk =   0.0219780
        k(   22) = (   0.3500000   0.2020785   0.0000000), wk =   0.0219780
        k(   23) = (   0.3666667   0.2117013   0.0000000), wk =   0.0219780
        k(   24) = (   0.3833333   0.2213241   0.0000000), wk =   0.0219780
        k(   25) = (   0.4000000   0.2309469   0.0000000), wk =   0.0219780
        k(   26) = (   0.4166667   0.2405697   0.0000000), wk =   0.0219780
        k(   27) = (   0.4333333   0.2501925   0.0000000), wk =   0.0219780
        k(   28) = (   0.4500000   0.2598152   0.0000000), wk =   0.0219780
        k(   29) = (   0.4666667   0.2694380   0.0000000), wk =   0.0219780
        k(   30) = (   0.4833333   0.2790608   0.0000000), wk =   0.0219780
        k(   31) = (   0.5000000   0.2886836   0.0000000), wk =   0.0219780
        k(   32) = (   0.4833333   0.2918899   0.0000000), wk =   0.0219780
        k(   33) = (   0.4666667   0.2950962   0.0000000), wk =   0.0219780
        k(   34) = (   0.4500000   0.2983025   0.0000000), wk =   0.0219780
        k(   35) = (   0.4333333   0.3015089   0.0000000), wk =   0.0219780
        k(   36) = (   0.4166667   0.3047152   0.0000000), wk =   0.0219780
        k(   37) = (   0.4000000   0.3079215   0.0000000), wk =   0.0219780
        k(   38) = (   0.3833333   0.3111278   0.0000000), wk =   0.0219780
        k(   39) = (   0.3666667   0.3143341   0.0000000), wk =   0.0219780
        k(   40) = (   0.3500000   0.3175404   0.0000000), wk =   0.0219780
        k(   41) = (   0.3333333   0.3207467   0.0000000), wk =   0.0219780
        k(   42) = (   0.3166667   0.3239530   0.0000000), wk =   0.0219780
        k(   43) = (   0.3000000   0.3271594   0.0000000), wk =   0.0219780
        k(   44) = (   0.2833333   0.3303657   0.0000000), wk =   0.0219780
        k(   45) = (   0.2666667   0.3335720   0.0000000), wk =   0.0219780
        k(   46) = (   0.2500000   0.3367783   0.0000000), wk =   0.0219780
        k(   47) = (   0.2333333   0.3399846   0.0000000), wk =   0.0219780
        k(   48) = (   0.2166667   0.3431909   0.0000000), wk =   0.0219780
        k(   49) = (   0.2000000   0.3463972   0.0000000), wk =   0.0219780
        k(   50) = (   0.1833333   0.3496035   0.0000000), wk =   0.0219780
        k(   51) = (   0.1666667   0.3528099   0.0000000), wk =   0.0219780
        k(   52) = (   0.1500000   0.3560162   0.0000000), wk =   0.0219780
        k(   53) = (   0.1333333   0.3592225   0.0000000), wk =   0.0219780
        k(   54) = (   0.1166667   0.3624288   0.0000000), wk =   0.0219780
        k(   55) = (   0.1000000   0.3656351   0.0000000), wk =   0.0219780
        k(   56) = (   0.0833333   0.3688414   0.0000000), wk =   0.0219780
        k(   57) = (   0.0666667   0.3720477   0.0000000), wk =   0.0219780
        k(   58) = (   0.0500000   0.3752540   0.0000000), wk =   0.0219780
        k(   59) = (   0.0333333   0.3784604   0.0000000), wk =   0.0219780
        k(   60) = (   0.0166667   0.3816667   0.0000000), wk =   0.0219780
        k(   61) = (   0.0000000   0.3848730   0.0000000), wk =   0.0219780
        k(   62) = (   0.0000000   0.3720439   0.0032400), wk =   0.0219780
        k(   63) = (   0.0000000   0.3592148   0.0064800), wk =   0.0219780
        k(   64) = (   0.0000000   0.3463857   0.0097201), wk =   0.0219780
        k(   65) = (   0.0000000   0.3335566   0.0129601), wk =   0.0219780
        k(   66) = (   0.0000000   0.3207275   0.0162001), wk =   0.0219780
        k(   67) = (   0.0000000   0.3078984   0.0194401), wk =   0.0219780
        k(   68) = (   0.0000000   0.2950693   0.0226801), wk =   0.0219780
        k(   69) = (   0.0000000   0.2822402   0.0259202), wk =   0.0219780
        k(   70) = (   0.0000000   0.2694111   0.0291602), wk =   0.0219780
        k(   71) = (   0.0000000   0.2565820   0.0324002), wk =   0.0219780
        k(   72) = (   0.0000000   0.2437529   0.0356402), wk =   0.0219780
        k(   73) = (   0.0000000   0.2309238   0.0388802), wk =   0.0219780
        k(   74) = (   0.0000000   0.2180947   0.0421203), wk =   0.0219780
        k(   75) = (   0.0000000   0.2052656   0.0453603), wk =   0.0219780
        k(   76) = (   0.0000000   0.1924365   0.0486003), wk =   0.0219780
        k(   77) = (   0.0000000   0.1796074   0.0518403), wk =   0.0219780
        k(   78) = (   0.0000000   0.1667783   0.0550804), wk =   0.0219780
        k(   79) = (   0.0000000   0.1539492   0.0583204), wk =   0.0219780
        k(   80) = (   0.0000000   0.1411201   0.0615604), wk =   0.0219780
        k(   81) = (   0.0000000   0.1282910   0.0648004), wk =   0.0219780
        k(   82) = (   0.0000000   0.1154619   0.0680404), wk =   0.0219780
        k(   83) = (   0.0000000   0.1026328   0.0712805), wk =   0.0219780
        k(   84) = (   0.0000000   0.0898037   0.0745205), wk =   0.0219780
        k(   85) = (   0.0000000   0.0769746   0.0777605), wk =   0.0219780
        k(   86) = (   0.0000000   0.0641455   0.0810005), wk =   0.0219780
        k(   87) = (   0.0000000   0.0513164   0.0842405), wk =   0.0219780
        k(   88) = (   0.0000000   0.0384873   0.0874806), wk =   0.0219780
        k(   89) = (   0.0000000   0.0256582   0.0907206), wk =   0.0219780
        k(   90) = (   0.0000000   0.0128291   0.0939606), wk =   0.0219780
        k(   91) = (   0.0000000   0.0000000   0.0972006), wk =   0.0219780

     Dense  grid:    91447 G-vectors     FFT dimensions: (  36,  36, 180)

     Smooth grid:    49847 G-vectors     FFT dimensions: (  27,  27, 144)

     Estimated max dynamical RAM per process >     300.43 MB

     The potential is recalculated from file :
     /home/jesus/Documentos/Nanociencia_DFT/silicano.save/charge-density


     negative rho (up, down):  1.025E-04 0.000E+00
     Starting wfcs are   10 randomized atomic wfcs
     Checking if some PAW data can be deallocated... 

     Band Structure Calculation
     Davidson diagonalization with overlap
     c_bands:  1 eigenvalues not converged

     ethr =  1.00E-08,  avg # of iterations = 45.4

     total cpu time spent up to now is       88.5 secs

     End of band structure calculation

          k = 0.0000 0.0000 0.0000 (  6161 PWs)   bands (ev):

   -13.6783  -9.1349  -5.8817  -3.4114  -3.4033  -1.1012   0.5081   0.5172
     0.7657   1.2044

          k = 0.0167 0.0096 0.0000 (  6158 PWs)   bands (ev):

   -13.6753  -9.1341  -5.8816  -3.4373  -3.4152  -1.0747   0.5051   0.5275
     0.7697   1.2088

          k = 0.0333 0.0192 0.0000 (  6150 PWs)   bands (ev):

   -13.6663  -9.1316  -5.8813  -3.5264  -3.4347  -1.0008   0.4932   0.5622
     0.7823   1.2216

          k = 0.0500 0.0289 0.0000 (  6156 PWs)   bands (ev):

   -13.6512  -9.1276  -5.8810  -3.6624  -3.4656  -0.8943   0.4770   0.6198
     0.8043   1.2421

          k = 0.0667 0.0385 0.0000 (  6164 PWs)   bands (ev):

   -13.6301  -9.1222  -5.8806  -3.8321  -3.5071  -0.7736   0.4635   0.6987
     0.8368   1.2695

          k = 0.0833 0.0481 0.0000 (  6170 PWs)   bands (ev):

   -13.6031  -9.1156  -5.8804  -4.0244  -3.5579  -0.6583   0.4618   0.7970
     0.8816   1.3032

          k = 0.1000 0.0577 0.0000 (  6170 PWs)   bands (ev):

   -13.5701  -9.1083  -5.8804  -4.2310  -3.6162  -0.5668   0.4812   0.9129
     0.9404   1.3429

          k = 0.1167 0.0674 0.0000 (  6188 PWs)   bands (ev):

   -13.5312  -9.1005  -5.8811  -4.4458  -3.6806  -0.5119   0.5267   1.0150
     1.0443   1.3896

          k = 0.1333 0.0770 0.0000 (  6190 PWs)   bands (ev):

   -13.4865  -9.0930  -5.8825  -4.6640  -3.7495  -0.4960   0.5937   1.1048
     1.1890   1.4453

          k = 0.1500 0.0866 0.0000 (  6214 PWs)   bands (ev):

   -13.4360  -9.0863  -5.8853  -4.8821  -3.8215  -0.5118   0.6715   1.2027
     1.3448   1.5152

          k = 0.1667 0.0962 0.0000 (  6214 PWs)   bands (ev):

   -13.3798  -9.0811  -5.8900  -5.0968  -3.8954  -0.5493   0.7508   1.2933
     1.5093   1.6071

          k = 0.1833 0.1059 0.0000 (  6206 PWs)   bands (ev):

   -13.3179  -9.0785  -5.8980  -5.3043  -3.9700  -0.5999   0.8272   1.3613
     1.6798   1.7233

          k = 0.2000 0.1155 0.0000 (  6218 PWs)   bands (ev):

   -13.2506  -9.0796  -5.9128  -5.4996  -4.0444  -0.6576   0.8993   1.4016
     1.8509   1.8551

          k = 0.2167 0.1251 0.0000 (  6218 PWs)   bands (ev):

   -13.1779  -9.0856  -5.9443  -5.6705  -4.1179  -0.7182   0.9670   1.4141
     1.9765   2.0273

          k = 0.2333 0.1347 0.0000 (  6216 PWs)   bands (ev):

   -13.0999  -9.0980  -6.0189  -5.7889  -4.1896  -0.7789   1.0297   1.3986
     2.0768   2.1967

          k = 0.2500 0.1443 0.0000 (  6218 PWs)   bands (ev):

   -13.0169  -9.1183  -6.1448  -5.8447  -4.2590  -0.8379   1.0856   1.3565
     2.1435   2.3343

          k = 0.2667 0.1540 0.0000 (  6224 PWs)   bands (ev):

   -12.9291  -9.1482  -6.2855  -5.8726  -4.3255  -0.8938   1.1292   1.2965
     2.1949   2.4387

          k = 0.2833 0.1636 0.0000 (  6238 PWs)   bands (ev):

   -12.8368  -9.1889  -6.4193  -5.8927  -4.3889  -0.9458   1.1344   1.2499
     2.2496   2.5530

          k = 0.3000 0.1732 0.0000 (  6244 PWs)   bands (ev):

   -12.7403  -9.2416  -6.5389  -5.9108  -4.4486  -0.9933   1.0674   1.2568
     2.3143   2.6739

          k = 0.3167 0.1828 0.0000 (  6236 PWs)   bands (ev):

   -12.6400  -9.3068  -6.6417  -5.9288  -4.5045  -1.0360   0.9718   1.2789
     2.3910   2.8011

          k = 0.3333 0.1925 0.0000 (  6240 PWs)   bands (ev):

   -12.5366  -9.3841  -6.7268  -5.9476  -4.5562  -1.0736   0.8708   1.2977
     2.4800   2.8890

          k = 0.3500 0.2021 0.0000 (  6262 PWs)   bands (ev):

   -12.4306  -9.4726  -6.7946  -5.9672  -4.6035  -1.1062   0.7712   1.3106
     2.5809   2.9329

          k = 0.3667 0.2117 0.0000 (  6254 PWs)   bands (ev):

   -12.3231  -9.5703  -6.8465  -5.9872  -4.6462  -1.1339   0.6765   1.3178
     2.6933   2.9617

          k = 0.3833 0.2213 0.0000 (  6252 PWs)   bands (ev):

   -12.2152  -9.6746  -6.8842  -6.0075  -4.6843  -1.1570   0.5888   1.3204
     2.8162   2.9791

          k = 0.4000 0.2309 0.0000 (  6252 PWs)   bands (ev):

   -12.1087  -9.7821  -6.9103  -6.0274  -4.7175  -1.1757   0.5098   1.3197
     2.9488   2.9886

          k = 0.4167 0.2406 0.0000 (  6248 PWs)   bands (ev):

   -12.0060  -9.8888  -6.9270  -6.0463  -4.7458  -1.1904   0.4409   1.3169
     2.9928   3.0902

          k = 0.4333 0.2502 0.0000 (  6248 PWs)   bands (ev):

   -11.9103  -9.9900  -6.9367  -6.0633  -4.7690  -1.2016   0.3831   1.3131
     2.9938   3.2395

          k = 0.4500 0.2598 0.0000 (  6230 PWs)   bands (ev):

   -11.8260 -10.0799  -6.9417  -6.0777  -4.7871  -1.2098   0.3372   1.3092
     2.9932   3.3959

          k = 0.4667 0.2694 0.0000 (  6226 PWs)   bands (ev):

   -11.7587 -10.1520  -6.9437  -6.0887  -4.8001  -1.2153   0.3040   1.3059
     2.9920   3.5585

          k = 0.4833 0.2791 0.0000 (  6252 PWs)   bands (ev):

   -11.7147 -10.1992  -6.9445  -6.0957  -4.8079  -1.2185   0.2838   1.3037
     2.9911   3.7262

          k = 0.5000 0.2887 0.0000 (  6258 PWs)   bands (ev):

   -11.6993 -10.2156  -6.9446  -6.0981  -4.8105  -1.2195   0.2770   1.3029
     2.9907   3.9025

          k = 0.4833 0.2919 0.0000 (  6244 PWs)   bands (ev):

   -11.7051 -10.2085  -6.9439  -6.0972  -4.8163  -1.2089   0.2809   1.3036
     2.9797   3.7878

          k = 0.4667 0.2951 0.0000 (  6232 PWs)   bands (ev):

   -11.7223 -10.1876  -6.9419  -6.0946  -4.8335  -1.1773   0.2923   1.3055
     2.9474   3.6903

          k = 0.4500 0.2983 0.0000 (  6236 PWs)   bands (ev):

   -11.7497 -10.1543  -6.9383  -6.0907  -4.8612  -1.1256   0.3116   1.3084
     2.8956   3.6054

          k = 0.4333 0.3015 0.0000 (  6234 PWs)   bands (ev):

   -11.7856 -10.1105  -6.9327  -6.0856  -4.8982  -1.0551   0.3389   1.3116
     2.8277   3.5326

          k = 0.4167 0.3047 0.0000 (  6241 PWs)   bands (ev):

   -11.8282 -10.0583  -6.9246  -6.0798  -4.9428  -0.9676   0.3746   1.3144
     2.7480   3.4704

          k = 0.4000 0.3079 0.0000 (  6253 PWs)   bands (ev):

   -11.8757 -10.0000  -6.9133  -6.0737  -4.9932  -0.8650   0.4190   1.3159
     2.6608   3.4166

          k = 0.3833 0.3111 0.0000 (  6247 PWs)   bands (ev):

   -11.9265  -9.9376  -6.8981  -6.0679  -5.0475  -0.7494   0.4729   1.3151
     2.5700   3.3697

          k = 0.3667 0.3143 0.0000 (  6250 PWs)   bands (ev):

   -11.9793  -9.8731  -6.8785  -6.0629  -5.1038  -0.6231   0.5367   1.3106
     2.4786   3.3285

          k = 0.3500 0.3175 0.0000 (  6248 PWs)   bands (ev):

   -12.0329  -9.8083  -6.8538  -6.0594  -5.1600  -0.4883   0.6113   1.3013
     2.3894   3.2921

          k = 0.3333 0.3207 0.0000 (  6248 PWs)   bands (ev):

   -12.0863  -9.7448  -6.8236  -6.0580  -5.2142  -0.3475   0.6975   1.2858
     2.3042   3.2597

          k = 0.3167 0.3240 0.0000 (  6254 PWs)   bands (ev):

   -12.1389  -9.6837  -6.7879  -6.0592  -5.2643  -0.2030   0.7961   1.2629
     2.2249   3.2306

          k = 0.3000 0.3272 0.0000 (  6252 PWs)   bands (ev):

   -12.1899  -9.6264  -6.7469  -6.0634  -5.3085  -0.0573   0.9074   1.2317
     2.1527   3.2037

          k = 0.2833 0.3304 0.0000 (  6257 PWs)   bands (ev):

   -12.2388  -9.5735  -6.7014  -6.0705  -5.3448   0.0873   1.0293   1.1934
     2.0889   3.1698

          k = 0.2667 0.3336 0.0000 (  6265 PWs)   bands (ev):

   -12.2854  -9.5258  -6.6530  -6.0799  -5.3715   0.2288   1.1084   1.2000
     2.0341   2.9586

          k = 0.2500 0.3368 0.0000 (  6253 PWs)   bands (ev):

   -12.3291  -9.4836  -6.6045  -6.0899  -5.3871   0.3654   1.0551   1.3381
     1.9889   2.6838

          k = 0.2333 0.3400 0.0000 (  6239 PWs)   bands (ev):

   -12.3698  -9.4472  -6.5598  -6.0978  -5.3903   0.4956   0.9736   1.4971
     1.9528   2.4252

          k = 0.2167 0.3432 0.0000 (  6239 PWs)   bands (ev):

   -12.4072  -9.4166  -6.5241  -6.0999  -5.3798   0.6172   0.8731   1.6521
     1.9208   2.2111

          k = 0.2000 0.3464 0.0000 (  6241 PWs)   bands (ev):

   -12.4410  -9.3915  -6.5021  -6.0931  -5.3545   0.7047   0.7757   1.7368
     1.8828   2.1228

          k = 0.1833 0.3496 0.0000 (  6241 PWs)   bands (ev):

   -12.4712  -9.3716  -6.4958  -6.0768  -5.3137   0.5873   0.8485   1.6425
     1.8931   2.2181

          k = 0.1667 0.3528 0.0000 (  6247 PWs)   bands (ev):

   -12.4976  -9.3567  -6.5036  -6.0541  -5.2572   0.4159   0.9395   1.5066
     1.9161   2.3943

          k = 0.1500 0.3560 0.0000 (  6245 PWs)   bands (ev):

   -12.5202  -9.3461  -6.5213  -6.0297  -5.1859   0.2246   1.0172   1.3885
     1.9480   2.5857

          k = 0.1333 0.3592 0.0000 (  6239 PWs)   bands (ev):

   -12.5386  -9.3396  -6.5449  -6.0070  -5.1023   0.0228   1.0753   1.2963
     1.9929   2.7466

          k = 0.1167 0.3624 0.0000 (  6246 PWs)   bands (ev):

   -12.5531  -9.3366  -6.5716  -5.9879  -5.0099  -0.1810   1.1007   1.2402
     2.0509   2.8171

          k = 0.1000 0.3656 0.0000 (  6246 PWs)   bands (ev):

   -12.5633  -9.3367  -6.5991  -5.9729  -4.9133  -0.3787   1.0781   1.2330
     2.1195   2.8323

          k = 0.0833 0.3688 0.0000 (  6248 PWs)   bands (ev):

   -12.5694  -9.3396  -6.6260  -5.9617  -4.8175  -0.5634   1.0339   1.2480
     2.1945   2.8369

          k = 0.0667 0.3720 0.0000 (  6248 PWs)   bands (ev):

   -12.5712  -9.3449  -6.6515  -5.9539  -4.7283  -0.7283   0.9900   1.2638
     2.2709   2.8423

          k = 0.0500 0.3753 0.0000 (  6245 PWs)   bands (ev):

   -12.5688  -9.3524  -6.6747  -5.9491  -4.6517  -0.8672   0.9513   1.2763
     2.3432   2.8514

          k = 0.0333 0.3785 0.0000 (  6239 PWs)   bands (ev):

   -12.5621  -9.3619  -6.6952  -5.9469  -4.5936  -0.9738   0.9188   1.2854
     2.4057   2.8644

          k = 0.0167 0.3817 0.0000 (  6241 PWs)   bands (ev):

   -12.5510  -9.3732  -6.7128  -5.9470  -4.5594  -1.0427   0.8926   1.2917
     2.4530   2.8780

          k = 0.0000 0.3849 0.0000 (  6238 PWs)   bands (ev):

   -12.5357  -9.3863  -6.7271  -5.9491  -4.5530  -1.0701   0.8727   1.2954
     2.4800   2.8878

          k = 0.0000 0.3720 0.0032 (  6238 PWs)   bands (ev):

   -12.6051  -9.3331  -6.6726  -5.9365  -4.5190  -1.0455   0.9399   1.2838
     2.4179   2.8479

          k = 0.0000 0.3592 0.0065 (  6240 PWs)   bands (ev):

   -12.6731  -9.2854  -6.6102  -5.9242  -4.4831  -1.0187   1.0061   1.2699
     2.3607   2.7986

          k = 0.0000 0.3464 0.0097 (  6237 PWs)   bands (ev):

   -12.7397  -9.2431  -6.5399  -5.9121  -4.4453  -0.9897   1.0683   1.2555
     2.3084   2.6939

          k = 0.0000 0.3336 0.0130 (  6239 PWs)   bands (ev):

   -12.8045  -9.2064  -6.4620  -5.9001  -4.4058  -0.9585   1.1187   1.2469
     2.2608   2.6208

          k = 0.0000 0.3207 0.0162 (  6226 PWs)   bands (ev):

   -12.8676  -9.1752  -6.3773  -5.8877  -4.3647  -0.9252   1.1398   1.2601
     2.2175   2.5504

          k = 0.0000 0.3079 0.0194 (  6226 PWs)   bands (ev):

   -12.9287  -9.1492  -6.2869  -5.8740  -4.3220  -0.8901   1.1281   1.2968
     2.1779   2.4823

          k = 0.0000 0.2951 0.0227 (  6227 PWs)   bands (ev):

   -12.9878  -9.1280  -6.1930  -5.8571  -4.2779  -0.8531   1.1010   1.3378
     2.1405   2.4050

          k = 0.0000 0.2822 0.0259 (  6222 PWs)   bands (ev):

   -13.0448  -9.1113  -6.1006  -5.8327  -4.2324  -0.8147   1.0670   1.3728
     2.1031   2.3015

          k = 0.0000 0.2694 0.0292 (  6213 PWs)   bands (ev):

   -13.0996  -9.0986  -6.0197  -5.7911  -4.1858  -0.7751   1.0289   1.3975
     2.0617   2.1929

          k = 0.0000 0.2566 0.0324 (  6208 PWs)   bands (ev):

   -13.1522  -9.0894  -5.9632  -5.7203  -4.1381  -0.7347   0.9878   1.4101
     2.0112   2.0804

          k = 0.0000 0.2438 0.0356 (  6213 PWs)   bands (ev):

   -13.2025  -9.0834  -5.9310  -5.6206  -4.0895  -0.6941   0.9442   1.4098
     1.9486   1.9654

          k = 0.0000 0.2309 0.0389 (  6209 PWs)   bands (ev):

   -13.2504  -9.0800  -5.9130  -5.5027  -4.0403  -0.6539   0.8986   1.3967
     1.8492   1.8754

          k = 0.0000 0.2181 0.0421 (  6210 PWs)   bands (ev):

   -13.2959  -9.0788  -5.9021  -5.3744  -3.9907  -0.6150   0.8511   1.3709
     1.7330   1.7973

          k = 0.0000 0.2053 0.0454 (  6210 PWs)   bands (ev):

   -13.3390  -9.0793  -5.8950  -5.2396  -3.9408  -0.5785   0.8016   1.3324
     1.6177   1.7206

          k = 0.0000 0.1924 0.0486 (  6198 PWs)   bands (ev):

   -13.3796  -9.0813  -5.8901  -5.1003  -3.8909  -0.5459   0.7505   1.2820
     1.5044   1.6510

          k = 0.0000 0.1796 0.0518 (  6198 PWs)   bands (ev):

   -13.4178  -9.0845  -5.8867  -4.9579  -3.8414  -0.5192   0.6980   1.2221
     1.3937   1.5913

          k = 0.0000 0.1668 0.0551 (  6195 PWs)   bands (ev):

   -13.4534  -9.0885  -5.8843  -4.8135  -3.7925  -0.5008   0.6454   1.1573
     1.2865   1.5416

          k = 0.0000 0.1539 0.0583 (  6189 PWs)   bands (ev):

   -13.4864  -9.0931  -5.8826  -4.6680  -3.7446  -0.4936   0.5946   1.0924
     1.1836   1.5002

          k = 0.0000 0.1411 0.0616 (  6189 PWs)   bands (ev):

   -13.5169  -9.0981  -5.8815  -4.5224  -3.6981  -0.5006   0.5487   1.0315
     1.0856   1.4650

          k = 0.0000 0.1283 0.0648 (  6190 PWs)   bands (ev):

   -13.5448  -9.1033  -5.8809  -4.3779  -3.6534  -0.5245   0.5112   0.9768
     0.9931   1.4345

          k = 0.0000 0.1155 0.0680 (  6178 PWs)   bands (ev):

   -13.5701  -9.1084  -5.8805  -4.2355  -3.6109  -0.5661   0.4846   0.9070
     0.9291   1.4077

          k = 0.0000 0.1026 0.0713 (  6168 PWs)   bands (ev):

   -13.5927  -9.1133  -5.8804  -4.0967  -3.5711  -0.6241   0.4696   0.8277
     0.8884   1.3839

          k = 0.0000 0.0898 0.0745 (  6154 PWs)   bands (ev):

   -13.6127  -9.1179  -5.8805  -3.9632  -3.5345  -0.6950   0.4653   0.7559
     0.8541   1.3628

          k = 0.0000 0.0770 0.0778 (  6149 PWs)   bands (ev):

   -13.6301  -9.1221  -5.8806  -3.8371  -3.5015  -0.7738   0.4689   0.6922
     0.8256   1.3442

          k = 0.0000 0.0641 0.0810 (  6149 PWs)   bands (ev):

   -13.6448  -9.1259  -5.8809  -3.7211  -3.4726  -0.8550   0.4777   0.6372
     0.8025   1.3280

          k = 0.0000 0.0513 0.0842 (  6150 PWs)   bands (ev):

   -13.6569  -9.1290  -5.8811  -3.6182  -3.4482  -0.9326   0.4888   0.5914
     0.7843   1.3143

          k = 0.0000 0.0385 0.0875 (  6156 PWs)   bands (ev):

   -13.6663  -9.1316  -5.8814  -3.5320  -3.4288  -1.0010   0.4999   0.5553
     0.7707   1.3032

          k = 0.0000 0.0257 0.0907 (  6159 PWs)   bands (ev):

   -13.6730  -9.1334  -5.8816  -3.4666  -3.4147  -1.0548   0.5091   0.5292
     0.7611   1.2951

          k = 0.0000 0.0128 0.0940 (  6172 PWs)   bands (ev):

   -13.6770  -9.1346  -5.8818  -3.4255  -3.4061  -1.0893   0.5134   0.5151
     0.7556   1.2901

          k = 0.0000 0.0000 0.0972 (  6168 PWs)   bands (ev):

   -13.6783  -9.1349  -5.8818  -3.4114  -3.4033  -1.1012   0.5081   0.5172
     0.7537   1.2884

     Writing output data file /home/jesus/Documentos/Nanociencia_DFT/silicano.save/
 
     init_run     :      0.96s CPU      1.32s WALL (       1 calls)
     electrons    :     85.00s CPU     85.52s WALL (       1 calls)

     Called by init_run:
     wfcinit      :      0.00s CPU      0.00s WALL (       1 calls)
     potinit      :      0.13s CPU      0.24s WALL (       1 calls)
     hinit0       :      0.50s CPU      0.58s WALL (       1 calls)

     Called by electrons:
     c_bands      :     84.99s CPU     85.52s WALL (       1 calls)
     v_of_rho     :      0.11s CPU      0.13s WALL (       1 calls)
     newd         :      0.21s CPU      0.35s WALL (       1 calls)
     PAW_pot      :      0.00s CPU      0.00s WALL (       1 calls)

     Called by c_bands:
     init_us_2    :      0.16s CPU      0.20s WALL (      91 calls)
     cegterg      :     80.03s CPU     80.46s WALL (     246 calls)

     Called by *egterg:
     cdiaghg      :      0.82s CPU      0.83s WALL (    4222 calls)
     h_psi        :     69.20s CPU     69.54s WALL (    4468 calls)
     s_psi        :      3.04s CPU      3.07s WALL (    4468 calls)
     g_psi        :      0.42s CPU      0.42s WALL (    4131 calls)

     Called by h_psi:
     h_psi:calbec :      3.27s CPU      3.29s WALL (    4468 calls)
     vloc_psi     :     62.49s CPU     62.79s WALL (    4468 calls)
     add_vuspsi   :      3.09s CPU      3.11s WALL (    4468 calls)

     General routines
     calbec       :      3.25s CPU      3.27s WALL (    4468 calls)
     fft          :      0.04s CPU      0.10s WALL (      13 calls)
     ffts         :      0.00s CPU      0.00s WALL (       1 calls)
     fftw         :     55.39s CPU     55.66s WALL (   45640 calls)
     interpolate  :      0.01s CPU      0.01s WALL (       1 calls)
     davcio       :      0.07s CPU      0.10s WALL (     182 calls)
 
     Parallel routines
 
     PWSCF        :   1m27.32s CPU   1m29.22s WALL

 
   This run was terminated on:  21:20:23  31Mar2021            

=------------------------------------------------------------------------------=
   JOB DONE.
=------------------------------------------------------------------------------=
