
     Program PWSCF v.6.6 starts on  2Apr2021 at  0: 7: 3 

     This program is part of the open-source Quantum ESPRESSO suite
     for quantum simulation of materials; please cite
         "P. Giannozzi et al., J. Phys.:Condens. Matter 21 395502 (2009);
         "P. Giannozzi et al., J. Phys.:Condens. Matter 29 465901 (2017);
          URL http://www.quantum-espresso.org", 
     in publications or presentations arising from this work. More details at
     http://www.quantum-espresso.org/quote

     Parallel version (MPI), running on     1 processors

     MPI processes distributed on     1 nodes
     Fft bands division:     nmany     =       1
     Waiting for input...
     Reading input from standard input
Warning: card &CELL ignored
Warning: card   CELL_DYNAMICS='BFGS', ignored
Warning: card   CELL_DOFREE='ALL', ignored
Warning: card / ignored

     Current dimensions of program PWSCF are:
     Max number of different atomic species (ntypx) = 10
     Max number of k-points (npk) =  40000
     Max angular momentum in pseudopotentials (lmaxx) =  3

     File /home/jesus/Documentos/Nanociencia_DFT/silicano.update deleted, as requested

     File /home/jesus/Documentos/Nanociencia_DFT/silicano.bfgs deleted, as requested

     Subspace diagonalization in iterative solution of the eigenvalue problem:
     a serial algorithm will be used

     Message from routine setup:
     using ibrav=0 with symmetry is DISCOURAGED, use correct ibrav instead
 
     G-vector sticks info
     --------------------
     sticks:   dense  smooth     PW     G-vecs:    dense   smooth      PW
     Sum         769     511    163                90847    49469    9135
 


     bravais-lattice index     =            0
     lattice parameter (alat)  =       7.3548  a.u.
     unit-cell volume          =    1772.2866 (a.u.)^3
     number of atoms/cell      =            4
     number of atomic types    =            2
     number of electrons       =        10.00
     number of Kohn-Sham states=           10
     kinetic-energy cutoff     =      35.0000  Ry
     charge density cutoff     =     210.0000  Ry
     convergence threshold     =      1.0E-06
     mixing beta               =       0.7000
     number of iterations used =            8  plain     mixing
     Exchange-correlation= PBE
                           (   1   4   3   4   0   0   0)

     celldm(1)=   7.354814  celldm(2)=   0.000000  celldm(3)=   0.000000
     celldm(4)=   0.000000  celldm(5)=   0.000000  celldm(6)=   0.000000

     crystal axes: (cart. coord. in units of alat)
               a(1) = (   0.500000   0.866000   0.000000 )  
               a(2) = (  -0.500000   0.866000   0.000000 )  
               a(3) = (   0.000000   0.000000   5.144000 )  

     reciprocal axes: (cart. coord. in units 2 pi/alat)
               b(1) = (  1.000000  0.577367  0.000000 )  
               b(2) = ( -1.000000  0.577367  0.000000 )  
               b(3) = (  0.000000  0.000000  0.194401 )  


     PseudoPot. # 1 for Si read from file:
     /home/jesus/Nanociencia_DFT/pseudopotenciales/Si.pbe-n-rrkjus_psl.1.0.0.UPF
     MD5 check sum: fa25574f73a70a4139f2adfbefec430c
     Pseudo is Ultrasoft + core correction, Zval =  4.0
     Generated using "atomic" code by A. Dal Corso v.6.3
     Using radial grid of 1141 points,  6 beta functions with: 
                l(1) =   0
                l(2) =   0
                l(3) =   1
                l(4) =   1
                l(5) =   2
                l(6) =   2
     Q(r) pseudized with 0 coefficients 


     PseudoPot. # 2 for H  read from file:
     /home/jesus/Nanociencia_DFT/pseudopotenciales/H.pbe-rrkjus_psl.1.0.0.UPF
     MD5 check sum: 3f4114867bd07edc7f1424d066fc1888
     Pseudo is Ultrasoft, Zval =  1.0
     Generated using "atomic" code by A. Dal Corso v.6.3MaX
     Using radial grid of  929 points,  2 beta functions with: 
                l(1) =   0
                l(2) =   0
     Q(r) pseudized with 0 coefficients 


     atomic species   valence    mass     pseudopotential
        Si             4.00    28.08550     Si( 1.00)
        H              1.00     1.00800     H ( 1.00)

      2 Sym. Ops. (no inversion) found



   Cartesian axes

     site n.     atom                  positions (alat units)
         1           H   tau(   1) = (   0.0000000  -0.0000013   0.0008421  )
         2           Si  tau(   2) = (   0.0000000  -0.0001317   0.3858204  )
         3           Si  tau(   3) = (   0.0000000   0.5768880   0.5709962  )
         4           H   tau(   4) = (   0.0000000   0.5767570   0.9559093  )

     number of k points=   111  Methfessel-Paxton smearing, width (Ry)=  0.0100

     Number of k-points >= 100: set verbosity='high' to print them.

     Dense  grid:    90847 G-vectors     FFT dimensions: (  36,  36, 180)

     Smooth grid:    49469 G-vectors     FFT dimensions: (  27,  27, 144)

     Estimated max dynamical RAM per process >     428.87 MB

     Initial potential from superposition of free atoms

     starting charge    9.99886, renormalised to   10.00000

     negative rho (up, down):  1.002E-04 0.000E+00
     Starting wfcs are   10 randomized atomic wfcs

     total cpu time spent up to now is        8.4 secs

     Self-consistent Calculation

     iteration #  1     ecut=    35.00 Ry     beta= 0.70
     Davidson diagonalization with overlap
     ethr =  1.00E-02,  avg # of iterations =  5.0

     negative rho (up, down):  8.176E-05 0.000E+00

     total cpu time spent up to now is       29.2 secs

     total energy              =     -25.15050852 Ry
     estimated scf accuracy    <       0.16742931 Ry

     iteration #  2     ecut=    35.00 Ry     beta= 0.70
     Davidson diagonalization with overlap
     ethr =  1.67E-03,  avg # of iterations =  1.3

     negative rho (up, down):  9.458E-05 0.000E+00

     total cpu time spent up to now is       43.9 secs

     total energy              =     -25.16092410 Ry
     estimated scf accuracy    <       0.00438482 Ry

     iteration #  3     ecut=    35.00 Ry     beta= 0.70
     Davidson diagonalization with overlap
     c_bands:  1 eigenvalues not converged
     c_bands:  1 eigenvalues not converged
     c_bands:  1 eigenvalues not converged
     c_bands:  1 eigenvalues not converged
     ethr =  4.38E-05,  avg # of iterations = 11.3

     negative rho (up, down):  9.916E-05 0.000E+00

     total cpu time spent up to now is       73.7 secs

     total energy              =     -25.16158904 Ry
     estimated scf accuracy    <       0.00021097 Ry

     iteration #  4     ecut=    35.00 Ry     beta= 0.70
     Davidson diagonalization with overlap
     c_bands:  1 eigenvalues not converged
     c_bands:  1 eigenvalues not converged
     c_bands:  1 eigenvalues not converged
     c_bands:  1 eigenvalues not converged
     c_bands:  1 eigenvalues not converged
     c_bands:  1 eigenvalues not converged
     c_bands:  1 eigenvalues not converged
     c_bands:  1 eigenvalues not converged
     c_bands:  1 eigenvalues not converged
     c_bands:  1 eigenvalues not converged
     ethr =  2.11E-06,  avg # of iterations =  9.0

     negative rho (up, down):  1.021E-04 0.000E+00

     total cpu time spent up to now is       93.8 secs

     total energy              =     -25.16162195 Ry
     estimated scf accuracy    <       0.00002122 Ry

     iteration #  5     ecut=    35.00 Ry     beta= 0.70
     Davidson diagonalization with overlap
     c_bands:  1 eigenvalues not converged
     ethr =  2.12E-07,  avg # of iterations =  2.9

     negative rho (up, down):  1.022E-04 0.000E+00

     total cpu time spent up to now is      107.2 secs

     End of self-consistent calculation

     Number of k-points >= 100: set verbosity='high' to print the bands.

     the Fermi energy is    -2.3789 ev

!    total energy              =     -25.16162503 Ry
     estimated scf accuracy    <       0.00000046 Ry
     smearing contrib. (-TS)   =       0.00000000 Ry
     internal energy E=F+TS    =     -25.16162503 Ry

     The total energy is F=E-TS. E is the sum of the following terms:
     one-electron contribution =    -110.84465963 Ry
     hartree contribution      =      56.73689559 Ry
     xc contribution           =     -13.64527341 Ry
     ewald contribution        =      42.59141243 Ry

     convergence has been achieved in   5 iterations

     Writing output data file /home/jesus/Documentos/Nanociencia_DFT/silicano.save/
 
     init_run     :      7.39s CPU      7.61s WALL (       1 calls)
     electrons    :     97.22s CPU     98.86s WALL (       1 calls)

     Called by init_run:
     wfcinit      :      6.17s CPU      6.25s WALL (       1 calls)
     potinit      :      0.29s CPU      0.31s WALL (       1 calls)
     hinit0       :      0.55s CPU      0.57s WALL (       1 calls)

     Called by electrons:
     c_bands      :     82.20s CPU     82.60s WALL (       5 calls)
     sum_band     :     13.12s CPU     13.76s WALL (       5 calls)
     v_of_rho     :      0.65s CPU      0.69s WALL (       6 calls)
     newd         :      1.48s CPU      2.15s WALL (       6 calls)
     mix_rho      :      0.07s CPU      0.07s WALL (       5 calls)

     Called by c_bands:
     init_us_2    :      2.75s CPU      2.78s WALL (    1221 calls)
     cegterg      :     71.17s CPU     71.52s WALL (     555 calls)

     Called by *egterg:
     cdiaghg      :      0.67s CPU      0.68s WALL (    3829 calls)
     h_psi        :     65.82s CPU     66.14s WALL (    3940 calls)
     s_psi        :      2.73s CPU      2.76s WALL (    3940 calls)
     g_psi        :      0.29s CPU      0.29s WALL (    3274 calls)

     Called by h_psi:
     h_psi:calbec :      2.96s CPU      2.97s WALL (    3940 calls)
     vloc_psi     :     59.71s CPU     60.00s WALL (    3940 calls)
     add_vuspsi   :      2.79s CPU      2.81s WALL (    3940 calls)

     General routines
     calbec       :      3.60s CPU      3.62s WALL (    4495 calls)
     fft          :      0.24s CPU      0.26s WALL (      76 calls)
     ffts         :      0.02s CPU      0.02s WALL (      11 calls)
     fftw         :     59.16s CPU     59.48s WALL (   44168 calls)
     interpolate  :      0.04s CPU      0.04s WALL (       6 calls)
 
     Parallel routines
 
     PWSCF        :   1m45.50s CPU   1m48.59s WALL

 
   This run was terminated on:   0: 8:52   2Apr2021            

=------------------------------------------------------------------------------=
   JOB DONE.
=------------------------------------------------------------------------------=
