
     Program PWSCF v.6.6 starts on 31Mar2021 at  0:25:29 

     This program is part of the open-source Quantum ESPRESSO suite
     for quantum simulation of materials; please cite
         "P. Giannozzi et al., J. Phys.:Condens. Matter 21 395502 (2009);
         "P. Giannozzi et al., J. Phys.:Condens. Matter 29 465901 (2017);
          URL http://www.quantum-espresso.org", 
     in publications or presentations arising from this work. More details at
     http://www.quantum-espresso.org/quote

     Parallel version (MPI), running on     1 processors

     MPI processes distributed on     1 nodes
     Fft bands division:     nmany     =       1
     Waiting for input...
     Reading input from standard input
Warning: card &CELL ignored
Warning: card   CELL_DYNAMICS='BFGS', ignored
Warning: card   CELL_DOFREE='ALL', ignored
Warning: card / ignored

     Current dimensions of program PWSCF are:
     Max number of different atomic species (ntypx) = 10
     Max number of k-points (npk) =  40000
     Max angular momentum in pseudopotentials (lmaxx) =  3
     file H.pbe-kjpaw_psl.1.0.0.UPF: wavefunction(s)  1S renormalized

     Subspace diagonalization in iterative solution of the eigenvalue problem:
     a serial algorithm will be used

     Message from routine setup:
     using ibrav=0 with symmetry is DISCOURAGED, use correct ibrav instead
 
     G-vector sticks info
     --------------------
     sticks:   dense  smooth     PW     G-vecs:    dense   smooth      PW
     Sum        1039     511    163               139755    49301    9135
 


     bravais-lattice index     =            0
     lattice parameter (alat)  =       7.3457  a.u.
     unit-cell volume          =    1765.6965 (a.u.)^3
     number of atoms/cell      =            4
     number of atomic types    =            2
     number of electrons       =        10.00
     number of Kohn-Sham states=            9
     kinetic-energy cutoff     =      35.0000  Ry
     charge density cutoff     =     280.0000  Ry
     convergence threshold     =      1.0E-06
     mixing beta               =       0.7000
     number of iterations used =            8  plain     mixing
     Exchange-correlation= SLA PW PBX PBC
                           (   1   4   3   4   0   0   0)

     celldm(1)=   7.345687  celldm(2)=   0.000000  celldm(3)=   0.000000
     celldm(4)=   0.000000  celldm(5)=   0.000000  celldm(6)=   0.000000

     crystal axes: (cart. coord. in units of alat)
               a(1) = (   0.500000   0.866000   0.000000 )  
               a(2) = (  -0.500000   0.866000   0.000000 )  
               a(3) = (   0.000000   0.000000   5.144000 )  

     reciprocal axes: (cart. coord. in units 2 pi/alat)
               b(1) = (  1.000000  0.577367  0.000000 )  
               b(2) = ( -1.000000  0.577367  0.000000 )  
               b(3) = (  0.000000  0.000000  0.194401 )  


     PseudoPot. # 1 for Si read from file:
     /home/jesus/Nanociencia_DFT/pseudopotenciales/Si.pbe-n-rrkjus_psl.1.0.0.UPF
     MD5 check sum: fa25574f73a70a4139f2adfbefec430c
     Pseudo is Ultrasoft + core correction, Zval =  4.0
     Generated using "atomic" code by A. Dal Corso v.6.3
     Using radial grid of 1141 points,  6 beta functions with: 
                l(1) =   0
                l(2) =   0
                l(3) =   1
                l(4) =   1
                l(5) =   2
                l(6) =   2
     Q(r) pseudized with 0 coefficients 


     PseudoPot. # 2 for H  read from file:
     /home/jesus/Nanociencia_DFT/pseudopotenciales/H.pbe-kjpaw_psl.1.0.0.UPF
     MD5 check sum: d81a744832360e4a8af0b0b5b123bc2a
     Pseudo is Projector augmented-wave, Zval =  1.0
     Generated using "atomic" code by A. Dal Corso v.6.3MaX
     Shape of augmentation charge: PSQ
     Using radial grid of  929 points,  2 beta functions with: 
                l(1) =   0
                l(2) =   0
     Q(r) pseudized with 0 coefficients 


     atomic species   valence    mass     pseudopotential
        Si             4.00    28.08550     Si( 1.00)
        H              1.00     1.00800     H ( 1.00)

      2 Sym. Ops. (no inversion) found



   Cartesian axes

     site n.     atom                  positions (alat units)
         1           H   tau(   1) = (   0.0000000   0.0000000   0.0000000  )
         2           Si  tau(   2) = (   0.0000000   0.0000000   0.3858000  )
         3           Si  tau(   3) = (   0.0000000   0.5767560   0.5709840  )
         4           H   tau(   4) = (   0.0000000   0.5767560   0.9567840  )

     number of k points=   421  Methfessel-Paxton smearing, width (Ry)=  0.0100

     Number of k-points >= 100: set verbosity='high' to print them.

     Dense  grid:   139755 G-vectors     FFT dimensions: (  40,  40, 216)

     Smooth grid:    49301 G-vectors     FFT dimensions: (  27,  27, 144)

     Estimated max dynamical RAM per process >     850.58 MB

     Initial potential from superposition of free atoms

     starting charge    9.99886, renormalised to   10.00000

     negative rho (up, down):  5.776E-05 0.000E+00
     Starting wfcs are   10 randomized atomic wfcs
     Checking if some PAW data can be deallocated... 

     total cpu time spent up to now is       19.5 secs

     Self-consistent Calculation

     iteration #  1     ecut=    35.00 Ry     beta= 0.70
     Davidson diagonalization with overlap
     ethr =  1.00E-02,  avg # of iterations =  3.5

     negative rho (up, down):  4.053E-05 0.000E+00

     total cpu time spent up to now is       82.7 secs

     total energy              =     -25.15095139 Ry
     estimated scf accuracy    <       0.16568317 Ry

     iteration #  2     ecut=    35.00 Ry     beta= 0.70
     Davidson diagonalization with overlap
     ethr =  1.66E-03,  avg # of iterations =  1.3

     negative rho (up, down):  5.184E-05 0.000E+00

     total cpu time spent up to now is      126.9 secs

     total energy              =     -25.16089026 Ry
     estimated scf accuracy    <       0.00461749 Ry

     iteration #  3     ecut=    35.00 Ry     beta= 0.70
     Davidson diagonalization with overlap
     c_bands:  1 eigenvalues not converged
     c_bands:  1 eigenvalues not converged
     c_bands:  1 eigenvalues not converged
     c_bands:  1 eigenvalues not converged
     c_bands:  1 eigenvalues not converged
     ethr =  4.62E-05,  avg # of iterations =  9.5

     negative rho (up, down):  5.467E-05 0.000E+00

     total cpu time spent up to now is      213.4 secs

     total energy              =     -25.16168549 Ry
     estimated scf accuracy    <       0.00025844 Ry

     iteration #  4     ecut=    35.00 Ry     beta= 0.70
     Davidson diagonalization with overlap
     c_bands:  1 eigenvalues not converged
     c_bands:  1 eigenvalues not converged
     c_bands:  1 eigenvalues not converged
     ethr =  2.58E-06,  avg # of iterations =  6.0

     negative rho (up, down):  5.763E-05 0.000E+00

     total cpu time spent up to now is      278.1 secs

     total energy              =     -25.16172882 Ry
     estimated scf accuracy    <       0.00002418 Ry

     iteration #  5     ecut=    35.00 Ry     beta= 0.70
     Davidson diagonalization with overlap
     ethr =  2.42E-07,  avg # of iterations =  1.6

     negative rho (up, down):  5.775E-05 0.000E+00

     total cpu time spent up to now is      323.7 secs

     End of self-consistent calculation

     Number of k-points >= 100: set verbosity='high' to print the bands.

     the Fermi energy is    -2.7307 ev

!    total energy              =     -25.16173177 Ry
     estimated scf accuracy    <       0.00000097 Ry
     smearing contrib. (-TS)   =       0.00000000 Ry
     internal energy E=F+TS    =     -25.16173177 Ry

     The total energy is F=E-TS. E is the sum of the following terms:
     one-electron contribution =    -110.89206442 Ry
     hartree contribution      =      56.76338413 Ry
     xc contribution           =     -13.64736371 Ry
     ewald contribution        =      42.61459437 Ry
     one-center paw contrib.   =      -0.00028215 Ry

     convergence has been achieved in   5 iterations

     Writing output data file /home/jesus/Documentos/Nanociencia_DFT/silicano.save/
 
     init_run     :     17.94s CPU     18.65s WALL (       1 calls)
     electrons    :    301.47s CPU    304.22s WALL (       1 calls)

     Called by init_run:
     wfcinit      :     16.11s CPU     16.36s WALL (       1 calls)
     potinit      :      0.42s CPU      0.46s WALL (       1 calls)
     hinit0       :      0.65s CPU      0.69s WALL (       1 calls)

     Called by electrons:
     c_bands      :    259.11s CPU    259.98s WALL (       5 calls)
     sum_band     :     39.72s CPU     40.67s WALL (       5 calls)
     v_of_rho     :      0.85s CPU      0.91s WALL (       6 calls)
     newd         :      2.14s CPU      3.21s WALL (       6 calls)
     PAW_pot      :      0.01s CPU      0.01s WALL (       6 calls)
     mix_rho      :      0.08s CPU      0.08s WALL (       5 calls)

     Called by c_bands:
     init_us_2    :     10.01s CPU     10.09s WALL (    4631 calls)
     cegterg      :    217.83s CPU    218.60s WALL (    2105 calls)

     Called by *egterg:
     cdiaghg      :      1.77s CPU      1.78s WALL (   11369 calls)
     h_psi        :    200.26s CPU    201.02s WALL (   11790 calls)
     s_psi        :      8.50s CPU      8.55s WALL (   11790 calls)
     g_psi        :      0.88s CPU      0.89s WALL (    9264 calls)

     Called by h_psi:
     h_psi:calbec :      9.05s CPU      9.08s WALL (   11790 calls)
     vloc_psi     :    181.45s CPU    182.13s WALL (   11790 calls)
     add_vuspsi   :      8.69s CPU      8.74s WALL (   11790 calls)

     General routines
     calbec       :     11.26s CPU     11.32s WALL (   13895 calls)
     fft          :      0.35s CPU      0.37s WALL (      76 calls)
     ffts         :      0.02s CPU      0.02s WALL (      11 calls)
     fftw         :    183.96s CPU    184.63s WALL (  145473 calls)
     interpolate  :      0.05s CPU      0.05s WALL (       6 calls)
 
     Parallel routines
 
     PWSCF        :   5m20.54s CPU   5m24.59s WALL

 
   This run was terminated on:   0:30:54  31Mar2021            

=------------------------------------------------------------------------------=
   JOB DONE.
=------------------------------------------------------------------------------=
