
     Program PWSCF v.6.6 starts on 31Mar2021 at  0:41:37 

     This program is part of the open-source Quantum ESPRESSO suite
     for quantum simulation of materials; please cite
         "P. Giannozzi et al., J. Phys.:Condens. Matter 21 395502 (2009);
         "P. Giannozzi et al., J. Phys.:Condens. Matter 29 465901 (2017);
          URL http://www.quantum-espresso.org", 
     in publications or presentations arising from this work. More details at
     http://www.quantum-espresso.org/quote

     Parallel version (MPI), running on     1 processors

     MPI processes distributed on     1 nodes
     Fft bands division:     nmany     =       1
     Waiting for input...
     Reading input from standard input
Warning: card &CELL ignored
Warning: card   CELL_DYNAMICS='BFGS', ignored
Warning: card   CELL_DOFREE='ALL', ignored
Warning: card / ignored

     Current dimensions of program PWSCF are:
     Max number of different atomic species (ntypx) = 10
     Max number of k-points (npk) =  40000
     Max angular momentum in pseudopotentials (lmaxx) =  3
     file H.pbe-kjpaw_psl.1.0.0.UPF: wavefunction(s)  1S renormalized

     Subspace diagonalization in iterative solution of the eigenvalue problem:
     a serial algorithm will be used

     Message from routine setup:
     using ibrav=0 with symmetry is DISCOURAGED, use correct ibrav instead
 
     G-vector sticks info
     --------------------
     sticks:   dense  smooth     PW     G-vecs:    dense   smooth      PW
     Sum        1417     511    163               225105    49301    9135
 


     bravais-lattice index     =            0
     lattice parameter (alat)  =       7.3457  a.u.
     unit-cell volume          =    1765.6965 (a.u.)^3
     number of atoms/cell      =            4
     number of atomic types    =            2
     number of electrons       =        10.00
     number of Kohn-Sham states=            9
     kinetic-energy cutoff     =      35.0000  Ry
     charge density cutoff     =     385.0000  Ry
     convergence threshold     =      1.0E-06
     mixing beta               =       0.7000
     number of iterations used =            8  plain     mixing
     Exchange-correlation= SLA PW PBX PBC
                           (   1   4   3   4   0   0   0)

     celldm(1)=   7.345687  celldm(2)=   0.000000  celldm(3)=   0.000000
     celldm(4)=   0.000000  celldm(5)=   0.000000  celldm(6)=   0.000000

     crystal axes: (cart. coord. in units of alat)
               a(1) = (   0.500000   0.866000   0.000000 )  
               a(2) = (  -0.500000   0.866000   0.000000 )  
               a(3) = (   0.000000   0.000000   5.144000 )  

     reciprocal axes: (cart. coord. in units 2 pi/alat)
               b(1) = (  1.000000  0.577367  0.000000 )  
               b(2) = ( -1.000000  0.577367  0.000000 )  
               b(3) = (  0.000000  0.000000  0.194401 )  


     PseudoPot. # 1 for Si read from file:
     /home/jesus/Nanociencia_DFT/pseudopotenciales/Si.pbe-n-rrkjus_psl.1.0.0.UPF
     MD5 check sum: fa25574f73a70a4139f2adfbefec430c
     Pseudo is Ultrasoft + core correction, Zval =  4.0
     Generated using "atomic" code by A. Dal Corso v.6.3
     Using radial grid of 1141 points,  6 beta functions with: 
                l(1) =   0
                l(2) =   0
                l(3) =   1
                l(4) =   1
                l(5) =   2
                l(6) =   2
     Q(r) pseudized with 0 coefficients 


     PseudoPot. # 2 for H  read from file:
     /home/jesus/Nanociencia_DFT/pseudopotenciales/H.pbe-kjpaw_psl.1.0.0.UPF
     MD5 check sum: d81a744832360e4a8af0b0b5b123bc2a
     Pseudo is Projector augmented-wave, Zval =  1.0
     Generated using "atomic" code by A. Dal Corso v.6.3MaX
     Shape of augmentation charge: PSQ
     Using radial grid of  929 points,  2 beta functions with: 
                l(1) =   0
                l(2) =   0
     Q(r) pseudized with 0 coefficients 


     atomic species   valence    mass     pseudopotential
        Si             4.00    28.08550     Si( 1.00)
        H              1.00     1.00800     H ( 1.00)

      2 Sym. Ops. (no inversion) found



   Cartesian axes

     site n.     atom                  positions (alat units)
         1           H   tau(   1) = (   0.0000000   0.0000000   0.0000000  )
         2           Si  tau(   2) = (   0.0000000   0.0000000   0.3858000  )
         3           Si  tau(   3) = (   0.0000000   0.5767560   0.5709840  )
         4           H   tau(   4) = (   0.0000000   0.5767560   0.9567840  )

     number of k points=   421  Methfessel-Paxton smearing, width (Ry)=  0.0100

     Number of k-points >= 100: set verbosity='high' to print them.

     Dense  grid:   225105 G-vectors     FFT dimensions: (  45,  45, 240)

     Smooth grid:    49301 G-vectors     FFT dimensions: (  27,  27, 144)

     Estimated max dynamical RAM per process >       1.12 GB

     Initial potential from superposition of free atoms

     starting charge    9.99886, renormalised to   10.00000

     negative rho (up, down):  1.123E-05 0.000E+00
     Starting wfcs are   10 randomized atomic wfcs
     Checking if some PAW data can be deallocated... 

     total cpu time spent up to now is       19.9 secs

     Self-consistent Calculation

     iteration #  1     ecut=    35.00 Ry     beta= 0.70
     Davidson diagonalization with overlap
     ethr =  1.00E-02,  avg # of iterations =  3.5

     negative rho (up, down):  5.846E-07 0.000E+00

     total cpu time spent up to now is       81.9 secs

     total energy              =     -25.15095110 Ry
     estimated scf accuracy    <       0.16566460 Ry

     iteration #  2     ecut=    35.00 Ry     beta= 0.70
     Davidson diagonalization with overlap
     ethr =  1.66E-03,  avg # of iterations =  1.3

     negative rho (up, down):  3.972E-06 0.000E+00

     total cpu time spent up to now is      124.9 secs

     total energy              =     -25.16088752 Ry
     estimated scf accuracy    <       0.00462035 Ry

     iteration #  3     ecut=    35.00 Ry     beta= 0.70
     Davidson diagonalization with overlap
     c_bands:  1 eigenvalues not converged
     c_bands:  1 eigenvalues not converged
     c_bands:  1 eigenvalues not converged
     ethr =  4.62E-05,  avg # of iterations =  9.4

     negative rho (up, down):  5.324E-06 0.000E+00

     total cpu time spent up to now is      206.7 secs

     total energy              =     -25.16168423 Ry
     estimated scf accuracy    <       0.00025865 Ry

     iteration #  4     ecut=    35.00 Ry     beta= 0.70
     Davidson diagonalization with overlap
     c_bands:  1 eigenvalues not converged
     c_bands:  1 eigenvalues not converged
     c_bands:  1 eigenvalues not converged
     c_bands:  1 eigenvalues not converged
     ethr =  2.59E-06,  avg # of iterations =  6.0

     negative rho (up, down):  7.535E-06 0.000E+00

     total cpu time spent up to now is      268.7 secs

     total energy              =     -25.16172767 Ry
     estimated scf accuracy    <       0.00002419 Ry

     iteration #  5     ecut=    35.00 Ry     beta= 0.70
     Davidson diagonalization with overlap
     ethr =  2.42E-07,  avg # of iterations =  1.7

     negative rho (up, down):  7.558E-06 0.000E+00

     total cpu time spent up to now is      312.8 secs

     End of self-consistent calculation

     Number of k-points >= 100: set verbosity='high' to print the bands.

     the Fermi energy is    -2.7306 ev

!    total energy              =     -25.16173063 Ry
     estimated scf accuracy    <       0.00000097 Ry
     smearing contrib. (-TS)   =       0.00000000 Ry
     internal energy E=F+TS    =     -25.16173063 Ry

     The total energy is F=E-TS. E is the sum of the following terms:
     one-electron contribution =    -110.89212435 Ry
     hartree contribution      =      56.76345384 Ry
     xc contribution           =     -13.64737235 Ry
     ewald contribution        =      42.61459437 Ry
     one-center paw contrib.   =      -0.00028215 Ry

     convergence has been achieved in   5 iterations

     Writing output data file /home/jesus/Documentos/Nanociencia_DFT/silicano.save/
 
     init_run     :     18.34s CPU     19.07s WALL (       1 calls)
     electrons    :    289.07s CPU    292.90s WALL (       1 calls)

     Called by init_run:
     wfcinit      :     15.94s CPU     16.17s WALL (       1 calls)
     potinit      :      0.63s CPU      0.68s WALL (       1 calls)
     hinit0       :      0.90s CPU      0.94s WALL (       1 calls)

     Called by electrons:
     c_bands      :    246.18s CPU    247.12s WALL (       5 calls)
     sum_band     :     38.84s CPU     40.25s WALL (       5 calls)
     v_of_rho     :      1.21s CPU      1.35s WALL (       6 calls)
     newd         :      3.30s CPU      5.07s WALL (       6 calls)
     PAW_pot      :      0.01s CPU      0.01s WALL (       6 calls)
     mix_rho      :      0.12s CPU      0.12s WALL (       5 calls)

     Called by c_bands:
     init_us_2    :      9.67s CPU      9.74s WALL (    4631 calls)
     cegterg      :    205.62s CPU    206.43s WALL (    2105 calls)

     Called by *egterg:
     cdiaghg      :      1.70s CPU      1.72s WALL (   11353 calls)
     h_psi        :    189.50s CPU    190.27s WALL (   11774 calls)
     s_psi        :      7.95s CPU      7.99s WALL (   11774 calls)
     g_psi        :      0.86s CPU      0.86s WALL (    9248 calls)

     Called by h_psi:
     h_psi:calbec :      9.01s CPU      9.04s WALL (   11774 calls)
     vloc_psi     :    171.32s CPU    172.01s WALL (   11774 calls)
     add_vuspsi   :      8.17s CPU      8.22s WALL (   11774 calls)

     General routines
     calbec       :     11.27s CPU     11.33s WALL (   13879 calls)
     fft          :      0.53s CPU      0.56s WALL (      76 calls)
     ffts         :      0.01s CPU      0.01s WALL (      11 calls)
     fftw         :    175.00s CPU    175.69s WALL (  145389 calls)
     interpolate  :      0.06s CPU      0.06s WALL (       6 calls)
 
     Parallel routines
 
     PWSCF        :   5m 8.60s CPU   5m14.05s WALL

 
   This run was terminated on:   0:46:51  31Mar2021            

=------------------------------------------------------------------------------=
   JOB DONE.
=------------------------------------------------------------------------------=
