
     Program PWSCF v.6.6 starts on 31Mar2021 at  0:46:52 

     This program is part of the open-source Quantum ESPRESSO suite
     for quantum simulation of materials; please cite
         "P. Giannozzi et al., J. Phys.:Condens. Matter 21 395502 (2009);
         "P. Giannozzi et al., J. Phys.:Condens. Matter 29 465901 (2017);
          URL http://www.quantum-espresso.org", 
     in publications or presentations arising from this work. More details at
     http://www.quantum-espresso.org/quote

     Parallel version (MPI), running on     1 processors

     MPI processes distributed on     1 nodes
     Fft bands division:     nmany     =       1
     Waiting for input...
     Reading input from standard input
Warning: card &CELL ignored
Warning: card   CELL_DYNAMICS='BFGS', ignored
Warning: card   CELL_DOFREE='ALL', ignored
Warning: card / ignored

     Current dimensions of program PWSCF are:
     Max number of different atomic species (ntypx) = 10
     Max number of k-points (npk) =  40000
     Max angular momentum in pseudopotentials (lmaxx) =  3
     file H.pbe-kjpaw_psl.1.0.0.UPF: wavefunction(s)  1S renormalized

     Subspace diagonalization in iterative solution of the eigenvalue problem:
     a serial algorithm will be used

     Message from routine setup:
     using ibrav=0 with symmetry is DISCOURAGED, use correct ibrav instead
 
     G-vector sticks info
     --------------------
     sticks:   dense  smooth     PW     G-vecs:    dense   smooth      PW
     Sum        1555     511    163               256585    49301    9135
 


     bravais-lattice index     =            0
     lattice parameter (alat)  =       7.3457  a.u.
     unit-cell volume          =    1765.6965 (a.u.)^3
     number of atoms/cell      =            4
     number of atomic types    =            2
     number of electrons       =        10.00
     number of Kohn-Sham states=            9
     kinetic-energy cutoff     =      35.0000  Ry
     charge density cutoff     =     420.0000  Ry
     convergence threshold     =      1.0E-06
     mixing beta               =       0.7000
     number of iterations used =            8  plain     mixing
     Exchange-correlation= SLA PW PBX PBC
                           (   1   4   3   4   0   0   0)

     celldm(1)=   7.345687  celldm(2)=   0.000000  celldm(3)=   0.000000
     celldm(4)=   0.000000  celldm(5)=   0.000000  celldm(6)=   0.000000

     crystal axes: (cart. coord. in units of alat)
               a(1) = (   0.500000   0.866000   0.000000 )  
               a(2) = (  -0.500000   0.866000   0.000000 )  
               a(3) = (   0.000000   0.000000   5.144000 )  

     reciprocal axes: (cart. coord. in units 2 pi/alat)
               b(1) = (  1.000000  0.577367  0.000000 )  
               b(2) = ( -1.000000  0.577367  0.000000 )  
               b(3) = (  0.000000  0.000000  0.194401 )  


     PseudoPot. # 1 for Si read from file:
     /home/jesus/Nanociencia_DFT/pseudopotenciales/Si.pbe-n-rrkjus_psl.1.0.0.UPF
     MD5 check sum: fa25574f73a70a4139f2adfbefec430c
     Pseudo is Ultrasoft + core correction, Zval =  4.0
     Generated using "atomic" code by A. Dal Corso v.6.3
     Using radial grid of 1141 points,  6 beta functions with: 
                l(1) =   0
                l(2) =   0
                l(3) =   1
                l(4) =   1
                l(5) =   2
                l(6) =   2
     Q(r) pseudized with 0 coefficients 


     PseudoPot. # 2 for H  read from file:
     /home/jesus/Nanociencia_DFT/pseudopotenciales/H.pbe-kjpaw_psl.1.0.0.UPF
     MD5 check sum: d81a744832360e4a8af0b0b5b123bc2a
     Pseudo is Projector augmented-wave, Zval =  1.0
     Generated using "atomic" code by A. Dal Corso v.6.3MaX
     Shape of augmentation charge: PSQ
     Using radial grid of  929 points,  2 beta functions with: 
                l(1) =   0
                l(2) =   0
     Q(r) pseudized with 0 coefficients 


     atomic species   valence    mass     pseudopotential
        Si             4.00    28.08550     Si( 1.00)
        H              1.00     1.00800     H ( 1.00)

      2 Sym. Ops. (no inversion) found



   Cartesian axes

     site n.     atom                  positions (alat units)
         1           H   tau(   1) = (   0.0000000   0.0000000   0.0000000  )
         2           Si  tau(   2) = (   0.0000000   0.0000000   0.3858000  )
         3           Si  tau(   3) = (   0.0000000   0.5767560   0.5709840  )
         4           H   tau(   4) = (   0.0000000   0.5767560   0.9567840  )

     number of k points=   421  Methfessel-Paxton smearing, width (Ry)=  0.0100

     Number of k-points >= 100: set verbosity='high' to print them.

     Dense  grid:   256585 G-vectors     FFT dimensions: (  48,  48, 250)

     Smooth grid:    49301 G-vectors     FFT dimensions: (  27,  27, 144)

     Estimated max dynamical RAM per process >       1.22 GB

     Initial potential from superposition of free atoms

     starting charge    9.99886, renormalised to   10.00000

     negative rho (up, down):  2.252E-05 0.000E+00
     Starting wfcs are   10 randomized atomic wfcs
     Checking if some PAW data can be deallocated... 

     total cpu time spent up to now is       20.5 secs

     Self-consistent Calculation

     iteration #  1     ecut=    35.00 Ry     beta= 0.70
     Davidson diagonalization with overlap
     ethr =  1.00E-02,  avg # of iterations =  3.5

     negative rho (up, down):  6.101E-06 0.000E+00

     total cpu time spent up to now is       82.8 secs

     total energy              =     -25.15095119 Ry
     estimated scf accuracy    <       0.16564770 Ry

     iteration #  2     ecut=    35.00 Ry     beta= 0.70
     Davidson diagonalization with overlap
     ethr =  1.66E-03,  avg # of iterations =  1.3

     negative rho (up, down):  1.323E-05 0.000E+00

     total cpu time spent up to now is      127.4 secs

     total energy              =     -25.16088513 Ry
     estimated scf accuracy    <       0.00462303 Ry

     iteration #  3     ecut=    35.00 Ry     beta= 0.70
     Davidson diagonalization with overlap
     c_bands:  1 eigenvalues not converged
     c_bands:  1 eigenvalues not converged
     ethr =  4.62E-05,  avg # of iterations =  9.4

     negative rho (up, down):  1.621E-05 0.000E+00

     total cpu time spent up to now is      210.9 secs

     total energy              =     -25.16168320 Ry
     estimated scf accuracy    <       0.00025898 Ry

     iteration #  4     ecut=    35.00 Ry     beta= 0.70
     Davidson diagonalization with overlap
     c_bands:  1 eigenvalues not converged
     c_bands:  1 eigenvalues not converged
     c_bands:  1 eigenvalues not converged
     ethr =  2.59E-06,  avg # of iterations =  5.9

     negative rho (up, down):  1.910E-05 0.000E+00

     total cpu time spent up to now is      273.7 secs

     total energy              =     -25.16172669 Ry
     estimated scf accuracy    <       0.00002421 Ry

     iteration #  5     ecut=    35.00 Ry     beta= 0.70
     Davidson diagonalization with overlap
     ethr =  2.42E-07,  avg # of iterations =  1.7

     negative rho (up, down):  1.918E-05 0.000E+00

     total cpu time spent up to now is      318.9 secs

     End of self-consistent calculation

     Number of k-points >= 100: set verbosity='high' to print the bands.

     the Fermi energy is    -2.7305 ev

!    total energy              =     -25.16172966 Ry
     estimated scf accuracy    <       0.00000098 Ry
     smearing contrib. (-TS)   =       0.00000000 Ry
     internal energy E=F+TS    =     -25.16172966 Ry

     The total energy is F=E-TS. E is the sum of the following terms:
     one-electron contribution =    -110.89215096 Ry
     hartree contribution      =      56.76348387 Ry
     xc contribution           =     -13.64737480 Ry
     ewald contribution        =      42.61459437 Ry
     one-center paw contrib.   =      -0.00028215 Ry

     convergence has been achieved in   5 iterations

     Writing output data file /home/jesus/Documentos/Nanociencia_DFT/silicano.save/
 
     init_run     :     18.73s CPU     19.46s WALL (       1 calls)
     electrons    :    293.96s CPU    298.50s WALL (       1 calls)

     Called by init_run:
     wfcinit      :     15.86s CPU     16.08s WALL (       1 calls)
     potinit      :      0.72s CPU      0.79s WALL (       1 calls)
     hinit0       :      1.01s CPU      1.04s WALL (       1 calls)

     Called by electrons:
     c_bands      :    249.36s CPU    250.20s WALL (       5 calls)
     sum_band     :     39.95s CPU     41.63s WALL (       5 calls)
     v_of_rho     :      1.42s CPU      1.62s WALL (       6 calls)
     newd         :      3.91s CPU      6.14s WALL (       6 calls)
     PAW_pot      :      0.01s CPU      0.01s WALL (       6 calls)
     mix_rho      :      0.13s CPU      0.13s WALL (       5 calls)

     Called by c_bands:
     init_us_2    :      9.70s CPU      9.78s WALL (    4631 calls)
     cegterg      :    208.57s CPU    209.31s WALL (    2105 calls)

     Called by *egterg:
     cdiaghg      :      1.72s CPU      1.73s WALL (   11271 calls)
     h_psi        :    191.97s CPU    192.77s WALL (   11692 calls)
     s_psi        :      8.14s CPU      8.18s WALL (   11692 calls)
     g_psi        :      0.86s CPU      0.87s WALL (    9166 calls)

     Called by h_psi:
     h_psi:calbec :      8.83s CPU      8.86s WALL (   11692 calls)
     vloc_psi     :    173.75s CPU    174.46s WALL (   11692 calls)
     add_vuspsi   :      8.33s CPU      8.38s WALL (   11692 calls)

     General routines
     calbec       :     11.02s CPU     11.08s WALL (   13797 calls)
     fft          :      0.61s CPU      0.63s WALL (      76 calls)
     ffts         :      0.01s CPU      0.01s WALL (      11 calls)
     fftw         :    177.41s CPU    178.13s WALL (  145139 calls)
     interpolate  :      0.07s CPU      0.07s WALL (       6 calls)
 
     Parallel routines
 
     PWSCF        :   5m13.81s CPU   5m19.97s WALL

 
   This run was terminated on:   0:52:12  31Mar2021            

=------------------------------------------------------------------------------=
   JOB DONE.
=------------------------------------------------------------------------------=
