
     Program PWSCF v.6.6 starts on 30Mar2021 at 23:59:24 

     This program is part of the open-source Quantum ESPRESSO suite
     for quantum simulation of materials; please cite
         "P. Giannozzi et al., J. Phys.:Condens. Matter 21 395502 (2009);
         "P. Giannozzi et al., J. Phys.:Condens. Matter 29 465901 (2017);
          URL http://www.quantum-espresso.org", 
     in publications or presentations arising from this work. More details at
     http://www.quantum-espresso.org/quote

     Parallel version (MPI), running on     1 processors

     MPI processes distributed on     1 nodes
     Fft bands division:     nmany     =       1
     Waiting for input...
     Reading input from standard input
Warning: card &CELL ignored
Warning: card   CELL_DYNAMICS='BFGS', ignored
Warning: card   CELL_DOFREE='ALL', ignored
Warning: card / ignored

     Current dimensions of program PWSCF are:
     Max number of different atomic species (ntypx) = 10
     Max number of k-points (npk) =  40000
     Max angular momentum in pseudopotentials (lmaxx) =  3
     file H.pbe-kjpaw_psl.1.0.0.UPF: wavefunction(s)  1S renormalized
     Message from routine set_cutoff:
     ecutrho < 4*ecutwfc, are you sure?

     Subspace diagonalization in iterative solution of the eigenvalue problem:
     a serial algorithm will be used

     Message from routine setup:
     using ibrav=0 with symmetry is DISCOURAGED, use correct ibrav instead
 
     G-vector sticks info
     --------------------
     sticks:   dense  smooth     PW     G-vecs:    dense   smooth      PW
     Sum         379     379    163                31881    31881    9135
 


     bravais-lattice index     =            0
     lattice parameter (alat)  =       7.3457  a.u.
     unit-cell volume          =    1765.6965 (a.u.)^3
     number of atoms/cell      =            4
     number of atomic types    =            2
     number of electrons       =        10.00
     number of Kohn-Sham states=            9
     kinetic-energy cutoff     =      35.0000  Ry
     charge density cutoff     =     105.0000  Ry
     convergence threshold     =      1.0E-06
     mixing beta               =       0.7000
     number of iterations used =            8  plain     mixing
     Exchange-correlation= SLA PW PBX PBC
                           (   1   4   3   4   0   0   0)

     celldm(1)=   7.345687  celldm(2)=   0.000000  celldm(3)=   0.000000
     celldm(4)=   0.000000  celldm(5)=   0.000000  celldm(6)=   0.000000

     crystal axes: (cart. coord. in units of alat)
               a(1) = (   0.500000   0.866000   0.000000 )  
               a(2) = (  -0.500000   0.866000   0.000000 )  
               a(3) = (   0.000000   0.000000   5.144000 )  

     reciprocal axes: (cart. coord. in units 2 pi/alat)
               b(1) = (  1.000000  0.577367  0.000000 )  
               b(2) = ( -1.000000  0.577367  0.000000 )  
               b(3) = (  0.000000  0.000000  0.194401 )  


     PseudoPot. # 1 for Si read from file:
     /home/jesus/Nanociencia_DFT/pseudopotenciales/Si.pbe-n-rrkjus_psl.1.0.0.UPF
     MD5 check sum: fa25574f73a70a4139f2adfbefec430c
     Pseudo is Ultrasoft + core correction, Zval =  4.0
     Generated using "atomic" code by A. Dal Corso v.6.3
     Using radial grid of 1141 points,  6 beta functions with: 
                l(1) =   0
                l(2) =   0
                l(3) =   1
                l(4) =   1
                l(5) =   2
                l(6) =   2
     Q(r) pseudized with 0 coefficients 


     PseudoPot. # 2 for H  read from file:
     /home/jesus/Nanociencia_DFT/pseudopotenciales/H.pbe-kjpaw_psl.1.0.0.UPF
     MD5 check sum: d81a744832360e4a8af0b0b5b123bc2a
     Pseudo is Projector augmented-wave, Zval =  1.0
     Generated using "atomic" code by A. Dal Corso v.6.3MaX
     Shape of augmentation charge: PSQ
     Using radial grid of  929 points,  2 beta functions with: 
                l(1) =   0
                l(2) =   0
     Q(r) pseudized with 0 coefficients 


     atomic species   valence    mass     pseudopotential
        Si             4.00    28.08550     Si( 1.00)
        H              1.00     1.00800     H ( 1.00)

      2 Sym. Ops. (no inversion) found



   Cartesian axes

     site n.     atom                  positions (alat units)
         1           H   tau(   1) = (   0.0000000   0.0000000   0.0000000  )
         2           Si  tau(   2) = (   0.0000000   0.0000000   0.3858000  )
         3           Si  tau(   3) = (   0.0000000   0.5767560   0.5709840  )
         4           H   tau(   4) = (   0.0000000   0.5767560   0.9567840  )

     number of k points=   421  Methfessel-Paxton smearing, width (Ry)=  0.0100

     Number of k-points >= 100: set verbosity='high' to print them.

     Dense  grid:    31881 G-vectors     FFT dimensions: (  24,  24, 125)

     Estimated max dynamical RAM per process >     473.84 MB

     Check: negative core charge=   -0.000005

     Initial potential from superposition of free atoms

     starting charge    9.99886, renormalised to   10.00000

     negative rho (up, down):  3.290E-03 0.000E+00
     Starting wfcs are   10 randomized atomic wfcs
     Checking if some PAW data can be deallocated... 

     total cpu time spent up to now is       14.2 secs

     Self-consistent Calculation

     iteration #  1     ecut=    35.00 Ry     beta= 0.70
     Davidson diagonalization with overlap
     ethr =  1.00E-02,  avg # of iterations =  3.5

     negative rho (up, down):  5.817E-03 0.000E+00

     total cpu time spent up to now is       61.0 secs

     total energy              =     -25.15185499 Ry
     estimated scf accuracy    <       0.16613947 Ry

     iteration #  2     ecut=    35.00 Ry     beta= 0.70
     Davidson diagonalization with overlap
     ethr =  1.66E-03,  avg # of iterations =  1.4

     negative rho (up, down):  6.448E-03 0.000E+00

     total cpu time spent up to now is       93.5 secs

     total energy              =     -25.16188494 Ry
     estimated scf accuracy    <       0.00457383 Ry

     iteration #  3     ecut=    35.00 Ry     beta= 0.70
     Davidson diagonalization with overlap
     c_bands:  1 eigenvalues not converged
     c_bands:  1 eigenvalues not converged
     c_bands:  1 eigenvalues not converged
     c_bands:  1 eigenvalues not converged
     c_bands:  1 eigenvalues not converged
     c_bands:  1 eigenvalues not converged
     c_bands:  1 eigenvalues not converged
     c_bands:  1 eigenvalues not converged
     c_bands:  1 eigenvalues not converged
     c_bands:  1 eigenvalues not converged
     c_bands:  1 eigenvalues not converged
     c_bands:  1 eigenvalues not converged
     c_bands:  1 eigenvalues not converged
     c_bands:  1 eigenvalues not converged
     c_bands:  1 eigenvalues not converged
     c_bands:  1 eigenvalues not converged
     c_bands:  1 eigenvalues not converged
     c_bands:  1 eigenvalues not converged
     c_bands:  1 eigenvalues not converged
     ethr =  4.57E-05,  avg # of iterations = 10.8

     negative rho (up, down):  6.394E-03 0.000E+00

     total cpu time spent up to now is      160.1 secs

     total energy              =     -25.16266917 Ry
     estimated scf accuracy    <       0.00025972 Ry

     iteration #  4     ecut=    35.00 Ry     beta= 0.70
     Davidson diagonalization with overlap
     c_bands:  1 eigenvalues not converged
     c_bands:  1 eigenvalues not converged
     c_bands:  1 eigenvalues not converged
     c_bands:  1 eigenvalues not converged
     c_bands:  1 eigenvalues not converged
     c_bands:  1 eigenvalues not converged
     c_bands:  1 eigenvalues not converged
     c_bands:  1 eigenvalues not converged
     c_bands:  1 eigenvalues not converged
     c_bands:  1 eigenvalues not converged
     c_bands:  1 eigenvalues not converged
     c_bands:  1 eigenvalues not converged
     c_bands:  1 eigenvalues not converged
     ethr =  2.60E-06,  avg # of iterations =  7.3

     negative rho (up, down):  6.365E-03 0.000E+00

     total cpu time spent up to now is      209.5 secs

     total energy              =     -25.16271229 Ry
     estimated scf accuracy    <       0.00002452 Ry

     iteration #  5     ecut=    35.00 Ry     beta= 0.70
     Davidson diagonalization with overlap
     c_bands:  1 eigenvalues not converged
     ethr =  2.45E-07,  avg # of iterations =  1.9

     negative rho (up, down):  6.368E-03 0.000E+00

     total cpu time spent up to now is      242.7 secs

     total energy              =     -25.16271517 Ry
     estimated scf accuracy    <       0.00000109 Ry

     iteration #  6     ecut=    35.00 Ry     beta= 0.70
     Davidson diagonalization with overlap
     ethr =  1.09E-08,  avg # of iterations =  2.1

     negative rho (up, down):  6.366E-03 0.000E+00

     total cpu time spent up to now is      280.7 secs

     End of self-consistent calculation

     Number of k-points >= 100: set verbosity='high' to print the bands.

     the Fermi energy is    -2.7348 ev

!    total energy              =     -25.16271530 Ry
     estimated scf accuracy    <       0.00000029 Ry
     smearing contrib. (-TS)   =       0.00000000 Ry
     internal energy E=F+TS    =     -25.16271530 Ry

     The total energy is F=E-TS. E is the sum of the following terms:
     one-electron contribution =    -110.88498683 Ry
     hartree contribution      =      56.75529512 Ry
     xc contribution           =     -13.64733577 Ry
     ewald contribution        =      42.61459436 Ry
     one-center paw contrib.   =      -0.00028219 Ry

     convergence has been achieved in   6 iterations

     Writing output data file /home/jesus/Documentos/Nanociencia_DFT/silicano.save/
 
     init_run     :     12.95s CPU     13.38s WALL (       1 calls)
     electrons    :    264.97s CPU    266.49s WALL (       1 calls)

     Called by init_run:
     wfcinit      :     12.07s CPU     12.39s WALL (       1 calls)
     potinit      :      0.11s CPU      0.12s WALL (       1 calls)
     hinit0       :      0.32s CPU      0.36s WALL (       1 calls)

     Called by electrons:
     c_bands      :    233.28s CPU    234.16s WALL (       6 calls)
     sum_band     :     31.04s CPU     31.39s WALL (       6 calls)
     v_of_rho     :      0.23s CPU      0.25s WALL (       7 calls)
     newd         :      0.48s CPU      0.82s WALL (       7 calls)
     PAW_pot      :      0.01s CPU      0.01s WALL (       7 calls)
     mix_rho      :      0.03s CPU      0.03s WALL (       6 calls)

     Called by c_bands:
     init_us_2    :     11.84s CPU     11.93s WALL (    5473 calls)
     cegterg      :    183.54s CPU    184.33s WALL (    2526 calls)

     Called by *egterg:
     cdiaghg      :      2.12s CPU      2.14s WALL (   13914 calls)
     h_psi        :    155.98s CPU    156.73s WALL (   14335 calls)
     s_psi        :     10.02s CPU     10.09s WALL (   14335 calls)
     g_psi        :      1.05s CPU      1.06s WALL (   11388 calls)

     Called by h_psi:
     h_psi:calbec :     10.45s CPU     10.50s WALL (   14335 calls)
     vloc_psi     :    134.22s CPU    134.86s WALL (   14335 calls)
     add_vuspsi   :     10.09s CPU     10.16s WALL (   14335 calls)

     General routines
     calbec       :     13.01s CPU     13.09s WALL (   16861 calls)
     fft          :      0.07s CPU      0.09s WALL (      77 calls)
     ffts         :      0.01s CPU      0.01s WALL (       6 calls)
     fftw         :    135.30s CPU    135.92s WALL (  171846 calls)
 
     Parallel routines
 
     PWSCF        :   4m39.03s CPU   4m41.72s WALL

 
   This run was terminated on:   0: 4: 6  31Mar2021            

=------------------------------------------------------------------------------=
   JOB DONE.
=------------------------------------------------------------------------------=
