
     Program PROJWFC v.6.6 starts on 31Mar2021 at 22:11:32 

     This program is part of the open-source Quantum ESPRESSO suite
     for quantum simulation of materials; please cite
         "P. Giannozzi et al., J. Phys.:Condens. Matter 21 395502 (2009);
         "P. Giannozzi et al., J. Phys.:Condens. Matter 29 465901 (2017);
          URL http://www.quantum-espresso.org", 
     in publications or presentations arising from this work. More details at
     http://www.quantum-espresso.org/quote

     Parallel version (MPI), running on     1 processors

     MPI processes distributed on     1 nodes
     Fft bands division:     nmany     =       1

     Reading xml data from directory:

     /home/jesus/Documentos/Nanociencia_DFT/silicano.save/
     file H.pbe-kjpaw_psl.1.0.0.UPF: wavefunction(s)  1S renormalized

     IMPORTANT: XC functional enforced from input :
     Exchange-correlation= PBE
                           (   1   4   3   4   0   0   0)
     Any further DFT definition will be discarded
     Please, verify this is what you really want

 
     G-vector sticks info
     --------------------
     sticks:   dense  smooth     PW     G-vecs:    dense   smooth      PW
     Sum         769     517    163                91447    49847    9159
 

     negative rho (up, down):  1.025E-04 0.000E+00

     Gaussian broadening (read from input): ngauss,degauss=   1    0.010000


     Calling projwave .... 
 
  Problem Sizes 
  natomwfc =           10
  nbnd     =           10
  nkstot   =          421
  npwx     =         6271
  nkb      =           40
 

     Atomic states used for projection
     (read from pseudopotential files):

     state #   1: atom   1 (H  ), wfc  1 (l=0 m= 1)
     state #   2: atom   2 (Si ), wfc  1 (l=0 m= 1)
     state #   3: atom   2 (Si ), wfc  2 (l=1 m= 1)
     state #   4: atom   2 (Si ), wfc  2 (l=1 m= 2)
     state #   5: atom   2 (Si ), wfc  2 (l=1 m= 3)
     state #   6: atom   3 (Si ), wfc  1 (l=0 m= 1)
     state #   7: atom   3 (Si ), wfc  2 (l=1 m= 1)
     state #   8: atom   3 (Si ), wfc  2 (l=1 m= 2)
     state #   9: atom   3 (Si ), wfc  2 (l=1 m= 3)
     state #  10: atom   4 (H  ), wfc  1 (l=0 m= 1)

 k =   0.0000000000  0.0000000000  0.0000000000
==== e(   1) =   -13.67833 eV ==== 
     psi = 0.419*[#   2]+0.419*[#   6]+0.064*[#   1]+0.064*[#  10]+0.013*[#   3]
          +0.013*[#   7]
    |psi|^2 = 0.991
==== e(   2) =    -9.13491 eV ==== 
     psi = 0.207*[#   3]+0.207*[#   7]+0.188*[#   1]+0.188*[#  10]+0.084*[#   2]
          +0.084*[#   6]
    |psi|^2 = 0.959
==== e(   3) =    -5.88174 eV ==== 
     psi = 0.275*[#   1]+0.275*[#  10]+0.194*[#   3]+0.194*[#   7]+0.017*[#   2]
          +0.017*[#   6]
    |psi|^2 = 0.973
==== e(   4) =    -3.41142 eV ==== 
     psi = 0.489*[#   5]+0.489*[#   9]
    |psi|^2 = 0.978
==== e(   5) =    -3.40327 eV ==== 
     psi = 0.489*[#   4]+0.489*[#   8]
    |psi|^2 = 0.978
==== e(   6) =    -1.10118 eV ==== 
     psi = 0.242*[#   3]+0.242*[#   7]+0.189*[#   2]+0.189*[#   6]+0.051*[#   1]
          +0.051*[#  10]
    |psi|^2 = 0.964
==== e(   7) =     0.50814 eV ==== 
     psi = 0.451*[#   4]+0.451*[#   8]
    |psi|^2 = 0.902
==== e(   8) =     0.51717 eV ==== 
     psi = 0.451*[#   5]+0.451*[#   9]
    |psi|^2 = 0.902
==== e(   9) =     0.76566 eV ==== 
     psi = 0.132*[#   1]+0.131*[#  10]+0.081*[#   2]+0.081*[#   6]+0.003*[#   3]
          +0.003*[#   7]
    |psi|^2 = 0.430
==== e(  10) =     1.20439 eV ==== 
     psi = 0.021*[#  10]+0.020*[#   1]+0.012*[#   3]+0.012*[#   7]+0.002*[#   6]
          +0.002*[#   2]
    |psi|^2 = 0.069

 k =  -0.0250000000  0.0144341801  0.0000000000
==== e(   1) =   -13.67153 eV ==== 
     psi = 0.418*[#   2]+0.418*[#   6]+0.063*[#   1]+0.063*[#  10]+0.013*[#   3]
          +0.013*[#   7]
    |psi|^2 = 0.991
==== e(   2) =    -9.13302 eV ==== 
     psi = 0.206*[#   3]+0.206*[#   7]+0.189*[#   1]+0.189*[#  10]+0.085*[#   2]
          +0.085*[#   6]
    |psi|^2 = 0.959
==== e(   3) =    -5.88146 eV ==== 
     psi = 0.275*[#   1]+0.275*[#  10]+0.194*[#   3]+0.194*[#   7]+0.017*[#   2]
          +0.017*[#   6]
    |psi|^2 = 0.973
==== e(   4) =    -3.47511 eV ==== 
     psi = 0.329*[#   4]+0.328*[#   8]+0.148*[#   5]+0.148*[#   9]+0.007*[#   2]
          +0.007*[#   6]+0.005*[#   3]+0.005*[#   7]
    |psi|^2 = 0.978
==== e(   5) =    -3.42355 eV ==== 
     psi = 0.338*[#   5]+0.338*[#   9]+0.151*[#   4]+0.151*[#   8]
    |psi|^2 = 0.978
==== e(   6) =    -1.04289 eV ==== 
     psi = 0.238*[#   3]+0.238*[#   7]+0.180*[#   2]+0.180*[#   6]+0.052*[#   1]
          +0.052*[#  10]+0.008*[#   4]+0.008*[#   8]+0.003*[#   5]+0.003*[#   9]
          
    |psi|^2 = 0.963
==== e(   7) =     0.50006 eV ==== 
     psi = 0.370*[#   4]+0.370*[#   8]+0.078*[#   5]+0.078*[#   9]+0.002*[#   2]
          +0.002*[#   6]
    |psi|^2 = 0.899
==== e(   8) =     0.54185 eV ==== 
     psi = 0.372*[#   5]+0.372*[#   9]+0.079*[#   4]+0.079*[#   8]
    |psi|^2 = 0.901
==== e(   9) =     0.77493 eV ==== 
     psi = 0.130*[#   1]+0.130*[#  10]+0.082*[#   2]+0.082*[#   6]+0.003*[#   3]
          +0.002*[#   7]
    |psi|^2 = 0.430
==== e(  10) =     1.21418 eV ==== 
     psi = 0.020*[#  10]+0.020*[#   1]+0.012*[#   3]+0.012*[#   7]+0.002*[#   6]
          +0.002*[#   2]
    |psi|^2 = 0.071

 k =  -0.0500000000  0.0288683603  0.0000000000
==== e(   1) =   -13.65120 eV ==== 
     psi = 0.415*[#   2]+0.415*[#   6]+0.063*[#   1]+0.063*[#  10]+0.012*[#   3]
          +0.012*[#   7]+0.004*[#   4]+0.004*[#   8]+0.001*[#   5]+0.001*[#   9]
          
    |psi|^2 = 0.991
==== e(   2) =    -9.12756 eV ==== 
     psi = 0.205*[#   3]+0.205*[#   7]+0.189*[#   1]+0.189*[#  10]+0.086*[#   2]
          +0.086*[#   6]
    |psi|^2 = 0.960
==== e(   3) =    -5.88098 eV ==== 
     psi = 0.275*[#   1]+0.275*[#  10]+0.194*[#   3]+0.194*[#   7]+0.017*[#   2]
          +0.017*[#   6]
    |psi|^2 = 0.974
==== e(   4) =    -3.66239 eV ==== 
     psi = 0.331*[#   4]+0.331*[#   8]+0.119*[#   5]+0.119*[#   9]+0.022*[#   2]
          +0.022*[#   6]+0.018*[#   3]+0.018*[#   7]
    |psi|^2 = 0.979
==== e(   5) =    -3.46562 eV ==== 
     psi = 0.360*[#   5]+0.360*[#   9]+0.129*[#   4]+0.129*[#   8]
    |psi|^2 = 0.979
==== e(   6) =    -0.89429 eV ==== 
     psi = 0.228*[#   3]+0.228*[#   7]+0.160*[#   2]+0.160*[#   6]+0.055*[#   1]
          +0.055*[#  10]+0.028*[#   4]+0.028*[#   8]+0.009*[#   5]+0.009*[#   9]
          
    |psi|^2 = 0.959
==== e(   7) =     0.47701 eV ==== 
     psi = 0.336*[#   4]+0.336*[#   8]+0.099*[#   5]+0.099*[#   9]+0.006*[#   2]
          +0.006*[#   6]+0.003*[#   1]+0.003*[#  10]+0.001*[#   3]+0.001*[#   7]
          
    |psi|^2 = 0.890
==== e(   8) =     0.61980 eV ==== 
     psi = 0.347*[#   5]+0.347*[#   9]+0.103*[#   4]+0.103*[#   8]
    |psi|^2 = 0.900
==== e(   9) =     0.80430 eV ==== 
     psi = 0.126*[#   1]+0.125*[#  10]+0.084*[#   2]+0.084*[#   6]+0.003*[#   4]
          +0.003*[#   8]+0.002*[#   3]+0.002*[#   7]
    |psi|^2 = 0.430
==== e(  10) =     1.24215 eV ==== 
     psi = 0.020*[#  10]+0.020*[#   1]+0.013*[#   3]+0.013*[#   7]+0.003*[#   4]
          +0.003*[#   8]+0.002*[#   6]+0.002*[#   2]+0.001*[#   5]+0.001*[#   9]
          
    |psi|^2 = 0.077

 k =  -0.0750000000  0.0433025404  0.0000000000
==== e(   1) =   -13.61736 eV ==== 
     psi = 0.411*[#   2]+0.411*[#   6]+0.062*[#   1]+0.062*[#  10]+0.012*[#   3]
          +0.012*[#   7]+0.008*[#   4]+0.008*[#   8]+0.003*[#   5]+0.003*[#   9]
          
    |psi|^2 = 0.991
==== e(   2) =    -9.11901 eV ==== 
     psi = 0.202*[#   3]+0.202*[#   7]+0.190*[#   1]+0.190*[#  10]+0.088*[#   2]
          +0.088*[#   6]
    |psi|^2 = 0.961
==== e(   3) =    -5.88049 eV ==== 
     psi = 0.275*[#   1]+0.275*[#  10]+0.193*[#   3]+0.194*[#   7]+0.016*[#   2]
          +0.016*[#   6]+0.002*[#   4]+0.002*[#   8]
    |psi|^2 = 0.974
==== e(   4) =    -3.92599 eV ==== 
     psi = 0.313*[#   4]+0.313*[#   8]+0.109*[#   5]+0.109*[#   9]+0.037*[#   2]
          +0.037*[#   6]+0.031*[#   3]+0.031*[#   7]
    |psi|^2 = 0.981
==== e(   5) =    -3.53144 eV ==== 
     psi = 0.364*[#   5]+0.364*[#   9]+0.125*[#   4]+0.125*[#   8]
    |psi|^2 = 0.980
==== e(   6) =    -0.71405 eV ==== 
     psi = 0.214*[#   3]+0.214*[#   7]+0.135*[#   2]+0.135*[#   6]+0.058*[#   1]
          +0.058*[#  10]+0.052*[#   4]+0.052*[#   8]+0.017*[#   5]+0.017*[#   9]
          
    |psi|^2 = 0.954
==== e(   7) =     0.46054 eV ==== 
     psi = 0.309*[#   8]+0.308*[#   4]+0.097*[#   5]+0.097*[#   9]+0.013*[#   1]
          +0.013*[#  10]+0.012*[#   2]+0.012*[#   6]+0.008*[#   3]+0.008*[#   7]
          
    |psi|^2 = 0.876
==== e(   8) =     0.74551 eV ==== 
     psi = 0.341*[#   5]+0.341*[#   9]+0.108*[#   4]+0.108*[#   8]
    |psi|^2 = 0.899
==== e(   9) =     0.85757 eV ==== 
     psi = 0.114*[#   1]+0.114*[#  10]+0.088*[#   2]+0.088*[#   6]+0.010*[#   4]
          +0.010*[#   8]+0.003*[#   5]+0.003*[#   9]
    |psi|^2 = 0.432
==== e(  10) =     1.28559 eV ==== 
     psi = 0.020*[#  10]+0.020*[#   1]+0.014*[#   3]+0.014*[#   7]+0.006*[#   4]
          +0.006*[#   8]+0.002*[#   5]+0.002*[#   9]+0.001*[#   6]+0.001*[#   2]
          
    |psi|^2 = 0.085

 k =  -0.1000000000  0.0577367206  0.0000000000
==== e(   1) =   -13.57010 eV ==== 
     psi = 0.404*[#   2]+0.404*[#   6]+0.061*[#   1]+0.062*[#  10]+0.014*[#   4]
          +0.014*[#   8]+0.011*[#   3]+0.011*[#   7]+0.005*[#   5]+0.005*[#   9]
          
    |psi|^2 = 0.991
==== e(   2) =    -9.10826 eV ==== 
     psi = 0.198*[#   3]+0.198*[#   7]+0.191*[#   1]+0.191*[#  10]+0.091*[#   2]
          +0.091*[#   6]+0.001*[#   4]+0.001*[#   8]
    |psi|^2 = 0.962
==== e(   3) =    -5.88043 eV ==== 
     psi = 0.275*[#   1]+0.275*[#  10]+0.193*[#   3]+0.193*[#   7]+0.015*[#   2]
          +0.015*[#   6]+0.003*[#   4]+0.003*[#   8]+0.001*[#   5]+0.001*[#   9]
          
    |psi|^2 = 0.975
==== e(   4) =    -4.23102 eV ==== 
     psi = 0.297*[#   4]+0.297*[#   8]+0.101*[#   5]+0.101*[#   9]+0.050*[#   2]
          +0.050*[#   6]+0.042*[#   3]+0.042*[#   7]
    |psi|^2 = 0.982
==== e(   5) =    -3.61620 eV ==== 
     psi = 0.366*[#   5]+0.366*[#   9]+0.124*[#   4]+0.124*[#   8]
    |psi|^2 = 0.981
==== e(   6) =    -0.56678 eV ==== 
     psi = 0.192*[#   3]+0.192*[#   7]+0.112*[#   2]+0.112*[#   6]+0.085*[#   4]
          +0.085*[#   8]+0.057*[#   1]+0.057*[#  10]+0.028*[#   5]+0.028*[#   9]
          
    |psi|^2 = 0.947
==== e(   7) =     0.48124 eV ==== 
     psi = 0.263*[#   8]+0.263*[#   4]+0.085*[#   5]+0.085*[#   9]+0.037*[#   1]
          +0.037*[#  10]+0.026*[#   3]+0.026*[#   7]+0.017*[#   2]+0.017*[#   6]
          
    |psi|^2 = 0.856
==== e(   8) =     0.91292 eV ==== 
     psi = 0.338*[#   5]+0.338*[#   9]+0.110*[#   4]+0.110*[#   8]
    |psi|^2 = 0.897
==== e(   9) =     0.94036 eV ==== 
     psi = 0.095*[#   1]+0.094*[#  10]+0.094*[#   2]+0.094*[#   6]+0.021*[#   4]
          +0.021*[#   8]+0.008*[#   5]+0.008*[#   9]
    |psi|^2 = 0.436
==== e(  10) =     1.34294 eV ==== 
     psi = 0.020*[#  10]+0.020*[#   1]+0.016*[#   3]+0.016*[#   7]+0.008*[#   4]
          +0.008*[#   8]+0.003*[#   5]+0.003*[#   9]+0.001*[#   2]+0.001*[#   6]
          
    |psi|^2 = 0.097

 k =  -0.1250000000  0.0721709007  0.0000000000
==== e(   1) =   -13.50959 eV ==== 
     psi = 0.397*[#   2]+0.397*[#   6]+0.061*[#   1]+0.061*[#  10]+0.021*[#   4]
          +0.021*[#   8]+0.011*[#   3]+0.011*[#   7]+0.007*[#   5]+0.007*[#   9]
          
    |psi|^2 = 0.991
==== e(   2) =    -9.09671 eV ==== 
     psi = 0.192*[#   1]+0.192*[#  10]+0.192*[#   3]+0.192*[#   7]+0.095*[#   2]
          +0.095*[#   6]+0.002*[#   4]+0.002*[#   8]
    |psi|^2 = 0.963
==== e(   3) =    -5.88168 eV ==== 
     psi = 0.275*[#   1]+0.275*[#  10]+0.192*[#   3]+0.192*[#   7]+0.013*[#   2]
          +0.013*[#   6]+0.005*[#   4]+0.005*[#   8]+0.002*[#   5]+0.002*[#   9]
          
    |psi|^2 = 0.976
==== e(   4) =    -4.55470 eV ==== 
     psi = 0.282*[#   4]+0.282*[#   8]+0.096*[#   5]+0.096*[#   9]+0.060*[#   2]
          +0.060*[#   6]+0.053*[#   3]+0.053*[#   7]
    |psi|^2 = 0.982
==== e(   5) =    -3.71456 eV ==== 
     psi = 0.367*[#   5]+0.367*[#   9]+0.124*[#   4]+0.124*[#   8]
    |psi|^2 = 0.982
==== e(   6) =    -0.49937 eV ==== 
     psi = 0.160*[#   3]+0.159*[#   7]+0.125*[#   4]+0.125*[#   8]+0.095*[#   2]
          +0.095*[#   6]+0.048*[#   1]+0.048*[#  10]+0.041*[#   5]+0.041*[#   9]
          
    |psi|^2 = 0.938
==== e(   7) =     0.55812 eV ==== 
     psi = 0.197*[#   8]+0.197*[#   4]+0.079*[#   1]+0.079*[#  10]+0.064*[#   5]
          +0.064*[#   9]+0.054*[#   3]+0.053*[#   7]+0.018*[#   2]+0.018*[#   6]
          
    |psi|^2 = 0.824
==== e(   8) =     1.05820 eV ==== 
     psi = 0.097*[#   2]+0.097*[#   6]+0.068*[#   1]+0.068*[#  10]+0.039*[#   4]
          +0.039*[#   8]+0.012*[#   5]+0.012*[#   9]+0.003*[#   7]+0.003*[#   3]
          
    |psi|^2 = 0.438
==== e(   9) =     1.11516 eV ==== 
     psi = 0.338*[#   5]+0.338*[#   9]+0.110*[#   4]+0.110*[#   8]
    |psi|^2 = 0.896
==== e(  10) =     1.41603 eV ==== 
     psi = 0.020*[#   3]+0.020*[#   7]+0.020*[#  10]+0.019*[#   1]+0.013*[#   4]
          +0.013*[#   8]+0.005*[#   5]+0.005*[#   9]+0.003*[#   2]+0.003*[#   6]
          
    |psi|^2 = 0.121

 k =  -0.1500000000  0.0866050808  0.0000000000
==== e(   1) =   -13.43599 eV ==== 
     psi = 0.389*[#   2]+0.389*[#   6]+0.060*[#   1]+0.060*[#  10]+0.028*[#   4]
          +0.028*[#   8]+0.010*[#   3]+0.010*[#   7]+0.009*[#   5]+0.009*[#   9]
          
    |psi|^2 = 0.991
==== e(   2) =    -9.08631 eV ==== 
     psi = 0.193*[#   1]+0.193*[#  10]+0.185*[#   3]+0.185*[#   7]+0.100*[#   2]
          +0.100*[#   6]+0.003*[#   4]+0.003*[#   8]+0.001*[#   5]+0.001*[#   9]
          
    |psi|^2 = 0.965
==== e(   3) =    -5.88525 eV ==== 
     psi = 0.274*[#   1]+0.274*[#  10]+0.191*[#   3]+0.191*[#   7]+0.012*[#   2]
          +0.012*[#   6]+0.008*[#   4]+0.008*[#   8]+0.003*[#   5]+0.003*[#   9]
          
    |psi|^2 = 0.977
==== e(   4) =    -4.88213 eV ==== 
     psi = 0.270*[#   4]+0.270*[#   8]+0.091*[#   5]+0.091*[#   9]+0.066*[#   2]
          +0.066*[#   6]+0.064*[#   3]+0.064*[#   7]
    |psi|^2 = 0.982
==== e(   5) =    -3.82150 eV ==== 
     psi = 0.368*[#   5]+0.368*[#   9]+0.124*[#   4]+0.124*[#   8]
    |psi|^2 = 0.983
==== e(   6) =    -0.51179 eV ==== 
     psi = 0.158*[#   4]+0.158*[#   8]+0.130*[#   3]+0.130*[#   7]+0.089*[#   2]
          +0.089*[#   6]+0.052*[#   5]+0.052*[#   9]+0.036*[#   1]+0.036*[#  10]
          
    |psi|^2 = 0.931
==== e(   7) =     0.67151 eV ==== 
     psi = 0.132*[#   8]+0.132*[#   4]+0.125*[#   1]+0.125*[#  10]+0.074*[#   3]
          +0.073*[#   7]+0.043*[#   5]+0.043*[#   9]+0.018*[#   2]+0.017*[#   6]
          
    |psi|^2 = 0.781
==== e(   8) =     1.20266 eV ==== 
     psi = 0.089*[#   2]+0.089*[#   6]+0.047*[#   4]+0.046*[#   8]+0.045*[#   1]
          +0.045*[#  10]+0.015*[#   5]+0.015*[#   9]+0.011*[#   7]+0.011*[#   3]
          
    |psi|^2 = 0.415
==== e(   9) =     1.34482 eV ==== 
     psi = 0.336*[#   5]+0.336*[#   9]+0.111*[#   4]+0.111*[#   8]
    |psi|^2 = 0.896
==== e(  10) =     1.51520 eV ==== 
     psi = 0.028*[#   3]+0.028*[#   7]+0.025*[#   4]+0.025*[#   8]+0.017*[#  10]
          +0.017*[#   1]+0.009*[#   5]+0.009*[#   9]+0.008*[#   2]+0.008*[#   6]
          
    |psi|^2 = 0.174

 k =  -0.1750000000  0.1010392610  0.0000000000
==== e(   1) =   -13.34953 eV ==== 
     psi = 0.381*[#   2]+0.381*[#   6]+0.059*[#   1]+0.059*[#  10]+0.036*[#   4]
          +0.036*[#   8]+0.012*[#   5]+0.012*[#   9]+0.009*[#   3]+0.009*[#   7]
          
    |psi|^2 = 0.991
==== e(   2) =    -9.07942 eV ==== 
     psi = 0.194*[#   1]+0.194*[#  10]+0.175*[#   3]+0.175*[#   7]+0.107*[#   2]
          +0.107*[#   6]+0.005*[#   4]+0.005*[#   8]+0.002*[#   5]+0.002*[#   9]
          
    |psi|^2 = 0.967
==== e(   3) =    -5.89340 eV ==== 
     psi = 0.271*[#   1]+0.271*[#  10]+0.189*[#   3]+0.189*[#   7]+0.014*[#   4]
          +0.014*[#   8]+0.010*[#   2]+0.010*[#   6]+0.005*[#   5]+0.005*[#   9]
          
    |psi|^2 = 0.978
==== e(   4) =    -5.20169 eV ==== 
     psi = 0.256*[#   4]+0.256*[#   8]+0.086*[#   5]+0.086*[#   9]+0.076*[#   3]
          +0.076*[#   7]+0.069*[#   2]+0.069*[#   6]+0.004*[#   1]+0.004*[#  10]
          
    |psi|^2 = 0.982
==== e(   5) =    -3.93266 eV ==== 
     psi = 0.369*[#   5]+0.368*[#   9]+0.124*[#   4]+0.124*[#   8]
    |psi|^2 = 0.984
==== e(   6) =    -0.57343 eV ==== 
     psi = 0.176*[#   4]+0.176*[#   8]+0.110*[#   3]+0.110*[#   7]+0.091*[#   2]
          +0.091*[#   6]+0.058*[#   5]+0.058*[#   9]+0.027*[#   1]+0.027*[#  10]
          
    |psi|^2 = 0.926
==== e(   7) =     0.78951 eV ==== 
     psi = 0.158*[#   1]+0.157*[#  10]+0.085*[#   8]+0.085*[#   4]+0.081*[#   3]
          +0.081*[#   7]+0.028*[#   5]+0.028*[#   9]+0.019*[#   2]+0.019*[#   6]
          
    |psi|^2 = 0.743
==== e(   8) =     1.33067 eV ==== 
     psi = 0.068*[#   6]+0.068*[#   2]+0.041*[#  10]+0.041*[#   1]+0.035*[#   4]
          +0.035*[#   8]+0.020*[#   7]+0.020*[#   3]+0.012*[#   5]+0.012*[#   9]
          
    |psi|^2 = 0.353
==== e(   9) =     1.59396 eV ==== 
     psi = 0.335*[#   5]+0.335*[#   9]+0.113*[#   4]+0.113*[#   8]
    |psi|^2 = 0.896
==== e(  10) =     1.66259 eV ==== 
     psi = 0.043*[#   4]+0.043*[#   8]+0.040*[#   3]+0.039*[#   7]+0.017*[#   5]
          +0.017*[#   9]+0.017*[#   2]+0.017*[#   6]+0.010*[#  10]+0.010*[#   1]
          
    |psi|^2 = 0.253

 k =  -0.2000000000  0.1154734411  0.0000000000
==== e(   1) =   -13.25057 eV ==== 
     psi = 0.372*[#   2]+0.372*[#   6]+0.058*[#   1]+0.058*[#  10]+0.043*[#   4]
          +0.043*[#   8]+0.014*[#   5]+0.014*[#   9]+0.008*[#   3]+0.008*[#   7]
          
    |psi|^2 = 0.991
==== e(   2) =    -9.07959 eV ==== 
     psi = 0.194*[#   1]+0.194*[#  10]+0.164*[#   3]+0.164*[#   7]+0.116*[#   2]
          +0.116*[#   6]+0.008*[#   4]+0.008*[#   8]+0.003*[#   5]+0.003*[#   9]
          
    |psi|^2 = 0.969
==== e(   3) =    -5.91282 eV ==== 
     psi = 0.260*[#   1]+0.260*[#  10]+0.182*[#   3]+0.182*[#   7]+0.028*[#   4]
          +0.028*[#   8]+0.010*[#   2]+0.009*[#   5]+0.010*[#   6]+0.009*[#   9]
          
    |psi|^2 = 0.979
==== e(   4) =    -5.49956 eV ==== 
     psi = 0.234*[#   4]+0.234*[#   8]+0.094*[#   3]+0.094*[#   7]+0.079*[#   5]
          +0.079*[#   9]+0.068*[#   2]+0.068*[#   6]+0.016*[#   1]+0.016*[#  10]
          
    |psi|^2 = 0.981
==== e(   5) =    -4.04445 eV ==== 
     psi = 0.369*[#   5]+0.369*[#   9]+0.124*[#   4]+0.124*[#   8]
    |psi|^2 = 0.986
==== e(   6) =    -0.65761 eV ==== 
     psi = 0.183*[#   4]+0.183*[#   8]+0.100*[#   3]+0.100*[#   7]+0.097*[#   2]
          +0.097*[#   6]+0.060*[#   5]+0.060*[#   9]+0.021*[#   1]+0.021*[#  10]
          
    |psi|^2 = 0.922
==== e(   7) =     0.89932 eV ==== 
     psi = 0.176*[#   1]+0.176*[#  10]+0.084*[#   3]+0.084*[#   7]+0.058*[#   8]
          +0.058*[#   4]+0.023*[#   2]+0.023*[#   6]+0.019*[#   5]+0.019*[#   9]
          
    |psi|^2 = 0.721
==== e(   8) =     1.40159 eV ==== 
     psi = 0.054*[#   6]+0.054*[#   2]+0.051*[#  10]+0.050*[#   1]+0.030*[#   7]
          +0.030*[#   3]+0.023*[#   4]+0.023*[#   8]+0.008*[#   5]+0.008*[#   9]
          
    |psi|^2 = 0.330
==== e(   9) =     1.85086 eV ==== 
     psi = 0.100*[#   5]+0.100*[#   9]+0.097*[#   8]+0.096*[#   4]+0.033*[#   3]
          +0.033*[#   7]+0.010*[#   2]+0.011*[#   6]+0.004*[#   1]+0.004*[#  10]
          
    |psi|^2 = 0.488
==== e(  10) =     1.85512 eV ==== 
     psi = 0.254*[#   9]+0.254*[#   5]+0.064*[#   4]+0.064*[#   8]+0.017*[#   3]
          +0.017*[#   7]+0.005*[#   2]+0.005*[#   6]+0.002*[#   1]+0.002*[#  10]
          
    |psi|^2 = 0.684

 k =  -0.2250000000  0.1299076212  0.0000000000
==== e(   1) =   -13.13952 eV ==== 
     psi = 0.364*[#   2]+0.364*[#   6]+0.057*[#   1]+0.057*[#  10]+0.050*[#   4]
          +0.050*[#   8]+0.017*[#   5]+0.017*[#   9]+0.007*[#   3]+0.007*[#   7]
          
    |psi|^2 = 0.991
==== e(   2) =    -9.09090 eV ==== 
     psi = 0.193*[#   1]+0.193*[#  10]+0.150*[#   3]+0.150*[#   7]+0.126*[#   2]
          +0.126*[#   6]+0.013*[#   4]+0.013*[#   8]+0.004*[#   5]+0.004*[#   9]
          
    |psi|^2 = 0.972
==== e(   3) =    -5.97413 eV ==== 
     psi = 0.191*[#   1]+0.191*[#  10]+0.153*[#   3]+0.153*[#   7]+0.096*[#   4]
          +0.096*[#   8]+0.032*[#   5]+0.032*[#   9]+0.019*[#   2]+0.019*[#   6]
          
    |psi|^2 = 0.981
==== e(   4) =    -5.73848 eV ==== 
     psi = 0.158*[#   4]+0.158*[#   8]+0.137*[#   7]+0.137*[#   3]+0.087*[#   1]
          +0.087*[#  10]+0.055*[#   2]+0.055*[#   6]+0.053*[#   5]+0.053*[#   9]
          
    |psi|^2 = 0.979
==== e(   5) =    -4.15397 eV ==== 
     psi = 0.370*[#   5]+0.369*[#   9]+0.124*[#   4]+0.124*[#   8]
    |psi|^2 = 0.987
==== e(   6) =    -0.74865 eV ==== 
     psi = 0.183*[#   4]+0.183*[#   8]+0.104*[#   2]+0.104*[#   6]+0.094*[#   3]
          +0.094*[#   7]+0.060*[#   5]+0.060*[#   9]+0.017*[#   1]+0.017*[#  10]
          
    |psi|^2 = 0.918
==== e(   7) =     0.99908 eV ==== 
     psi = 0.184*[#   1]+0.184*[#  10]+0.087*[#   3]+0.087*[#   7]+0.044*[#   8]
          +0.044*[#   4]+0.028*[#   2]+0.028*[#   6]+0.014*[#   5]+0.014*[#   9]
          
    |psi|^2 = 0.713
==== e(   8) =     1.40985 eV ==== 
     psi = 0.066*[#  10]+0.065*[#   1]+0.054*[#   6]+0.054*[#   2]+0.042*[#   7]
          +0.041*[#   3]+0.019*[#   4]+0.018*[#   8]+0.006*[#   5]+0.006*[#   9]
          
    |psi|^2 = 0.371
==== e(   9) =     2.03082 eV ==== 
     psi = 0.054*[#   3]+0.054*[#   7]+0.032*[#   4]+0.032*[#   8]+0.009*[#   5]
          +0.009*[#   9]+0.007*[#   1]+0.007*[#  10]+0.006*[#   2]+0.006*[#   6]
          
    |psi|^2 = 0.215
==== e(  10) =     2.11278 eV ==== 
     psi = 0.340*[#   5]+0.340*[#   9]+0.111*[#   4]+0.111*[#   8]
    |psi|^2 = 0.902

 k =  -0.2500000000  0.1443418014  0.0000000000
==== e(   1) =   -13.01693 eV ==== 
     psi = 0.356*[#   2]+0.356*[#   6]+0.057*[#   1]+0.057*[#   4]+0.057*[#   8]
          +0.057*[#  10]+0.019*[#   5]+0.019*[#   9]+0.006*[#   3]+0.006*[#   7]
          
    |psi|^2 = 0.991
==== e(   2) =    -9.11832 eV ==== 
     psi = 0.189*[#   1]+0.189*[#  10]+0.138*[#   2]+0.139*[#   6]+0.133*[#   3]
          +0.133*[#   7]+0.020*[#   4]+0.020*[#   8]+0.007*[#   5]+0.007*[#   9]
          
    |psi|^2 = 0.975
==== e(   3) =    -6.14483 eV ==== 
     psi = 0.191*[#   4]+0.191*[#   8]+0.121*[#   3]+0.121*[#   7]+0.075*[#   1]
          +0.074*[#  10]+0.064*[#   5]+0.064*[#   9]+0.040*[#   2]+0.040*[#   6]
          
    |psi|^2 = 0.981
==== e(   4) =    -5.84471 eV ==== 
     psi = 0.206*[#   1]+0.206*[#  10]+0.185*[#   7]+0.185*[#   3]+0.054*[#   4]
          +0.054*[#   8]+0.027*[#   2]+0.027*[#   6]+0.018*[#   5]+0.018*[#   9]
          
    |psi|^2 = 0.979
==== e(   5) =    -4.25896 eV ==== 
     psi = 0.370*[#   5]+0.370*[#   9]+0.124*[#   4]+0.124*[#   8]
    |psi|^2 = 0.987
==== e(   6) =    -0.83786 eV ==== 
     psi = 0.179*[#   4]+0.179*[#   8]+0.112*[#   2]+0.112*[#   6]+0.093*[#   3]
          +0.093*[#   7]+0.059*[#   5]+0.059*[#   9]+0.014*[#   1]+0.014*[#  10]
          
    |psi|^2 = 0.914
==== e(   7) =     1.08563 eV ==== 
     psi = 0.181*[#   1]+0.180*[#  10]+0.091*[#   3]+0.090*[#   7]+0.038*[#   8]
          +0.038*[#   4]+0.031*[#   2]+0.031*[#   6]+0.013*[#   5]+0.013*[#   9]
          
    |psi|^2 = 0.704
==== e(   8) =     1.35654 eV ==== 
     psi = 0.087*[#  10]+0.086*[#   1]+0.062*[#   6]+0.061*[#   2]+0.052*[#   7]
          +0.051*[#   3]+0.018*[#   4]+0.017*[#   8]+0.006*[#   5]+0.006*[#   9]
          
    |psi|^2 = 0.446
==== e(   9) =     2.14347 eV ==== 
     psi = 0.038*[#   3]+0.038*[#   7]+0.008*[#   4]+0.008*[#   8]+0.005*[#   1]
          +0.005*[#  10]+0.002*[#   5]+0.002*[#   9]
    |psi|^2 = 0.108
==== e(  10) =     2.33429 eV ==== 
     psi = 0.019*[#   8]+0.014*[#   4]+0.009*[#   2]+0.009*[#   6]+0.007*[#   5]
          +0.006*[#   3]+0.006*[#   7]+0.003*[#   9]+0.001*[#   1]+0.001*[#  10]
          
    |psi|^2 = 0.077

 k =  -0.2750000000  0.1587759815  0.0000000000
==== e(   1) =   -12.88353 eV ==== 
     psi = 0.349*[#   2]+0.349*[#   6]+0.063*[#   4]+0.063*[#   8]+0.057*[#   1]
          +0.057*[#  10]+0.021*[#   5]+0.021*[#   9]+0.005*[#   3]+0.005*[#   7]
          
    |psi|^2 = 0.991
==== e(   2) =    -9.16712 eV ==== 
     psi = 0.183*[#   1]+0.183*[#  10]+0.153*[#   2]+0.153*[#   6]+0.114*[#   3]
          +0.114*[#   7]+0.029*[#   4]+0.029*[#   8]+0.010*[#   5]+0.010*[#   9]
          
    |psi|^2 = 0.978
==== e(   3) =    -6.35387 eV ==== 
     psi = 0.204*[#   4]+0.204*[#   8]+0.128*[#   3]+0.128*[#   7]+0.068*[#   5]
          +0.068*[#   9]+0.049*[#   1]+0.049*[#  10]+0.041*[#   2]+0.041*[#   6]
          
    |psi|^2 = 0.979
==== e(   4) =    -5.88314 eV ==== 
     psi = 0.237*[#   1]+0.237*[#  10]+0.196*[#   7]+0.195*[#   3]+0.030*[#   4]
          +0.030*[#   8]+0.017*[#   2]+0.017*[#   6]+0.010*[#   5]+0.010*[#   9]
          
    |psi|^2 = 0.980
==== e(   5) =    -4.35764 eV ==== 
     psi = 0.370*[#   5]+0.370*[#   9]+0.124*[#   4]+0.124*[#   8]
    |psi|^2 = 0.988
==== e(   6) =    -0.92035 eV ==== 
     psi = 0.172*[#   4]+0.172*[#   8]+0.120*[#   2]+0.120*[#   6]+0.093*[#   3]
          +0.093*[#   7]+0.057*[#   5]+0.057*[#   9]+0.012*[#   1]+0.012*[#  10]
          
    |psi|^2 = 0.909
==== e(   7) =     1.14019 eV ==== 
     psi = 0.131*[#   1]+0.129*[#  10]+0.089*[#   3]+0.088*[#   7]+0.046*[#   8]
          +0.046*[#   4]+0.031*[#   2]+0.030*[#   6]+0.015*[#   5]+0.015*[#   9]
          
    |psi|^2 = 0.620
==== e(   8) =     1.26754 eV ==== 
     psi = 0.146*[#  10]+0.144*[#   1]+0.075*[#   6]+0.074*[#   2]+0.064*[#   7]
          +0.063*[#   3]+0.009*[#   4]+0.009*[#   8]+0.003*[#   5]+0.003*[#   9]
          
    |psi|^2 = 0.591
==== e(   9) =     2.22127 eV ==== 
     psi = 0.019*[#   3]+0.019*[#   7]+0.002*[#   4]+0.002*[#   8]
    |psi|^2 = 0.045
==== e(  10) =     2.49497 eV ==== 
     psi = 0.013*[#   4]+0.013*[#   8]+0.008*[#   3]+0.008*[#   7]+0.006*[#   2]
          +0.006*[#   6]+0.005*[#   9]+0.004*[#   5]+0.001*[#   1]+0.001*[#  10]
          
    |psi|^2 = 0.065

 k =  -0.3000000000  0.1732101617  0.0000000000
==== e(   1) =   -12.74032 eV ==== 
     psi = 0.343*[#   2]+0.343*[#   6]+0.068*[#   4]+0.068*[#   8]+0.057*[#   1]
          +0.057*[#  10]+0.023*[#   5]+0.023*[#   9]+0.004*[#   3]+0.004*[#   7]
          
    |psi|^2 = 0.991
==== e(   2) =    -9.24164 eV ==== 
     psi = 0.174*[#   1]+0.174*[#  10]+0.167*[#   2]+0.167*[#   6]+0.094*[#   3]
          +0.094*[#   7]+0.041*[#   4]+0.041*[#   8]+0.014*[#   5]+0.014*[#   9]
          
    |psi|^2 = 0.980
==== e(   3) =    -6.53892 eV ==== 
     psi = 0.195*[#   4]+0.195*[#   8]+0.143*[#   3]+0.143*[#   7]+0.065*[#   5]
          +0.065*[#   9]+0.052*[#   1]+0.052*[#  10]+0.034*[#   2]+0.034*[#   6]
          
    |psi|^2 = 0.978
==== e(   4) =    -5.91079 eV ==== 
     psi = 0.243*[#   1]+0.243*[#  10]+0.200*[#   7]+0.199*[#   3]+0.026*[#   4]
          +0.026*[#   8]+0.013*[#   2]+0.013*[#   6]+0.009*[#   5]+0.009*[#   9]
          
    |psi|^2 = 0.981
==== e(   5) =    -4.44864 eV ==== 
     psi = 0.371*[#   5]+0.370*[#   9]+0.124*[#   4]+0.124*[#   8]
    |psi|^2 = 0.989
==== e(   6) =    -0.99334 eV ==== 
     psi = 0.165*[#   4]+0.165*[#   8]+0.127*[#   2]+0.127*[#   6]+0.095*[#   3]
          +0.095*[#   7]+0.054*[#   5]+0.054*[#   9]+0.010*[#   1]+0.010*[#  10]
          
    |psi|^2 = 0.904
==== e(   7) =     1.06739 eV ==== 
     psi = 0.067*[#   3]+0.066*[#   7]+0.059*[#   1]+0.058*[#  10]+0.053*[#   2]
          +0.052*[#   6]+0.051*[#   8]+0.051*[#   4]+0.017*[#   5]+0.017*[#   9]
          
    |psi|^2 = 0.492
==== e(   8) =     1.25679 eV ==== 
     psi = 0.219*[#  10]+0.218*[#   1]+0.091*[#   7]+0.090*[#   3]+0.064*[#   6]
          +0.064*[#   2]+0.007*[#   4]+0.007*[#   8]+0.002*[#   5]+0.002*[#   9]
          
    |psi|^2 = 0.764
==== e(   9) =     2.31435 eV ==== 
     psi = 0.008*[#   3]+0.008*[#   7]+0.002*[#   1]+0.002*[#  10]
    |psi|^2 = 0.023
==== e(  10) =     2.67390 eV ==== 
     psi = 0.009*[#   8]+0.008*[#   4]+0.007*[#   3]+0.007*[#   7]+0.004*[#   5]
          +0.004*[#   2]+0.004*[#   6]+0.002*[#   9]+0.001*[#   1]+0.001*[#  10]
          
    |psi|^2 = 0.046

 k =  -0.3250000000  0.1876443418  0.0000000000
==== e(   1) =   -12.58867 eV ==== 
     psi = 0.337*[#   2]+0.337*[#   6]+0.073*[#   4]+0.073*[#   8]+0.058*[#   1]
          +0.058*[#  10]+0.024*[#   5]+0.024*[#   9]+0.003*[#   3]+0.003*[#   7]
          
    |psi|^2 = 0.991
==== e(   2) =    -9.34395 eV ==== 
     psi = 0.182*[#   2]+0.182*[#   6]+0.162*[#   1]+0.162*[#  10]+0.074*[#   3]
          +0.074*[#   7]+0.055*[#   4]+0.055*[#   8]+0.018*[#   5]+0.018*[#   9]
          
    |psi|^2 = 0.983
==== e(   3) =    -6.68644 eV ==== 
     psi = 0.180*[#   4]+0.180*[#   8]+0.158*[#   3]+0.158*[#   7]+0.064*[#   1]
          +0.063*[#  10]+0.060*[#   5]+0.060*[#   9]+0.026*[#   2]+0.026*[#   6]
          
    |psi|^2 = 0.977
==== e(   4) =    -5.93810 eV ==== 
     psi = 0.242*[#   1]+0.242*[#  10]+0.203*[#   7]+0.203*[#   3]+0.027*[#   4]
          +0.027*[#   8]+0.011*[#   2]+0.011*[#   6]+0.009*[#   5]+0.009*[#   9]
          
    |psi|^2 = 0.982
==== e(   5) =    -4.53087 eV ==== 
     psi = 0.371*[#   5]+0.371*[#   9]+0.124*[#   4]+0.124*[#   8]
    |psi|^2 = 0.989
==== e(   6) =    -1.05544 eV ==== 
     psi = 0.156*[#   4]+0.156*[#   8]+0.134*[#   2]+0.134*[#   6]+0.098*[#   3]
          +0.098*[#   7]+0.052*[#   5]+0.052*[#   9]+0.009*[#   1]+0.009*[#  10]
          
    |psi|^2 = 0.898
==== e(   7) =     0.92143 eV ==== 
     psi = 0.066*[#   2]+0.066*[#   6]+0.063*[#   1]+0.062*[#  10]+0.061*[#   3]
          +0.060*[#   7]+0.054*[#   4]+0.054*[#   8]+0.018*[#   5]+0.018*[#   9]
          
    |psi|^2 = 0.520
==== e(   8) =     1.28901 eV ==== 
     psi = 0.212*[#  10]+0.212*[#   1]+0.098*[#   7]+0.097*[#   3]+0.061*[#   6]
          +0.061*[#   2]+0.010*[#   4]+0.010*[#   8]+0.003*[#   5]+0.003*[#   9]
          
    |psi|^2 = 0.767
==== e(   9) =     2.43395 eV ==== 
     psi = 0.007*[#   1]+0.007*[#  10]+0.003*[#   3]+0.003*[#   7]
    |psi|^2 = 0.023
==== e(  10) =     2.86015 eV ==== 
     psi = 0.311*[#   9]+0.311*[#   5]+0.103*[#   4]+0.103*[#   8]
    |psi|^2 = 0.829

 k =  -0.3500000000  0.2020785219  0.0000000000
==== e(   1) =   -12.43061 eV ==== 
     psi = 0.333*[#   2]+0.333*[#   6]+0.076*[#   4]+0.076*[#   8]+0.059*[#   1]
          +0.059*[#  10]+0.025*[#   5]+0.025*[#   9]+0.002*[#   3]+0.002*[#   7]
          
    |psi|^2 = 0.991
==== e(   2) =    -9.47262 eV ==== 
     psi = 0.195*[#   2]+0.195*[#   6]+0.148*[#   1]+0.148*[#  10]+0.070*[#   4]
          +0.070*[#   8]+0.056*[#   3]+0.056*[#   7]+0.023*[#   5]+0.023*[#   9]
          
    |psi|^2 = 0.985
==== e(   3) =    -6.79464 eV ==== 
     psi = 0.172*[#   3]+0.172*[#   7]+0.164*[#   4]+0.164*[#   8]+0.079*[#   1]
          +0.079*[#  10]+0.055*[#   5]+0.055*[#   9]+0.018*[#   2]+0.018*[#   6]
          
    |psi|^2 = 0.976
==== e(   4) =    -5.96718 eV ==== 
     psi = 0.238*[#   1]+0.238*[#  10]+0.206*[#   7]+0.206*[#   3]+0.028*[#   4]
          +0.028*[#   8]+0.010*[#   2]+0.010*[#   6]+0.010*[#   5]+0.010*[#   9]
          
    |psi|^2 = 0.982
==== e(   5) =    -4.60349 eV ==== 
     psi = 0.371*[#   5]+0.371*[#   9]+0.124*[#   4]+0.124*[#   8]
    |psi|^2 = 0.990
==== e(   6) =    -1.10623 eV ==== 
     psi = 0.148*[#   4]+0.148*[#   8]+0.140*[#   2]+0.140*[#   6]+0.102*[#   3]
          +0.102*[#   7]+0.049*[#   5]+0.049*[#   9]+0.007*[#   1]+0.007*[#  10]
          
    |psi|^2 = 0.891
==== e(   7) =     0.77125 eV ==== 
     psi = 0.073*[#   2]+0.073*[#   6]+0.066*[#   1]+0.066*[#  10]+0.060*[#   4]
          +0.060*[#   8]+0.057*[#   3]+0.057*[#   7]+0.020*[#   5]+0.020*[#   9]
          
    |psi|^2 = 0.551
==== e(   8) =     1.31057 eV ==== 
     psi = 0.203*[#  10]+0.203*[#   1]+0.099*[#   3]+0.099*[#   7]+0.063*[#   6]
          +0.063*[#   2]+0.010*[#   4]+0.010*[#   8]+0.003*[#   5]+0.003*[#   9]
          
    |psi|^2 = 0.756
==== e(   9) =     2.58092 eV ==== 
     psi = 0.014*[#   1]+0.014*[#  10]+0.002*[#   3]+0.002*[#   7]+0.001*[#   4]
          +0.001*[#   8]
    |psi|^2 = 0.037
==== e(  10) =     2.93294 eV ==== 
     psi = 0.295*[#   9]+0.295*[#   5]+0.098*[#   4]+0.098*[#   8]
    |psi|^2 = 0.787

 k =  -0.3750000000  0.2165127021  0.0000000000
==== e(   1) =   -12.26908 eV ==== 
     psi = 0.329*[#   2]+0.329*[#   6]+0.078*[#   4]+0.078*[#   8]+0.061*[#   1]
          +0.061*[#  10]+0.026*[#   5]+0.026*[#   9]+0.002*[#   3]+0.002*[#   7]
          
    |psi|^2 = 0.991
==== e(   2) =    -9.62180 eV ==== 
     psi = 0.205*[#   2]+0.205*[#   6]+0.134*[#   1]+0.134*[#  10]+0.084*[#   4]
          +0.084*[#   8]+0.041*[#   3]+0.041*[#   7]+0.028*[#   5]+0.028*[#   9]
          
    |psi|^2 = 0.986
==== e(   3) =    -6.86699 eV ==== 
     psi = 0.183*[#   3]+0.183*[#   7]+0.149*[#   4]+0.149*[#   8]+0.096*[#   1]
          +0.095*[#  10]+0.050*[#   5]+0.050*[#   9]+0.011*[#   2]+0.011*[#   6]
          
    |psi|^2 = 0.977
==== e(   4) =    -5.99737 eV ==== 
     psi = 0.233*[#   1]+0.233*[#  10]+0.209*[#   7]+0.209*[#   3]+0.030*[#   4]
          +0.030*[#   8]+0.010*[#   5]+0.010*[#   9]+0.009*[#   2]+0.009*[#   6]
          
    |psi|^2 = 0.983
==== e(   5) =    -4.66587 eV ==== 
     psi = 0.371*[#   5]+0.371*[#   9]+0.124*[#   4]+0.124*[#   8]
    |psi|^2 = 0.990
==== e(   6) =    -1.14601 eV ==== 
     psi = 0.145*[#   2]+0.145*[#   6]+0.139*[#   4]+0.139*[#   8]+0.107*[#   3]
          +0.107*[#   7]+0.046*[#   5]+0.046*[#   9]+0.006*[#   1]+0.006*[#  10]
          
    |psi|^2 = 0.884
==== e(   7) =     0.63164 eV ==== 
     psi = 0.078*[#   2]+0.078*[#   6]+0.069*[#   1]+0.069*[#  10]+0.067*[#   4]
          +0.067*[#   8]+0.053*[#   3]+0.053*[#   7]+0.022*[#   5]+0.022*[#   9]
          
    |psi|^2 = 0.580
==== e(   8) =     1.31962 eV ==== 
     psi = 0.194*[#   1]+0.195*[#  10]+0.099*[#   3]+0.099*[#   7]+0.065*[#   6]
          +0.065*[#   2]+0.010*[#   4]+0.010*[#   8]+0.003*[#   5]+0.003*[#   9]
          
    |psi|^2 = 0.743
==== e(   9) =     2.75346 eV ==== 
     psi = 0.021*[#   1]+0.021*[#  10]+0.004*[#   3]+0.004*[#   7]+0.002*[#   4]
          +0.002*[#   8]+0.001*[#   2]+0.001*[#   6]
    |psi|^2 = 0.056
==== e(  10) =     2.97162 eV ==== 
     psi = 0.281*[#   5]+0.281*[#   9]+0.093*[#   4]+0.093*[#   8]
    |psi|^2 = 0.748

 k =  -0.4000000000  0.2309468822  0.0000000000
==== e(   1) =   -12.10874 eV ==== 
     psi = 0.327*[#   2]+0.327*[#   6]+0.079*[#   4]+0.079*[#   8]+0.063*[#   1]
          +0.063*[#  10]+0.026*[#   5]+0.026*[#   9]
    |psi|^2 = 0.991
==== e(   2) =    -9.78206 eV ==== 
     psi = 0.212*[#   2]+0.212*[#   6]+0.121*[#   1]+0.121*[#  10]+0.098*[#   4]
          +0.098*[#   8]+0.033*[#   5]+0.033*[#   9]+0.030*[#   3]+0.030*[#   7]
          
    |psi|^2 = 0.986
==== e(   3) =    -6.91028 eV ==== 
     psi = 0.190*[#   3]+0.190*[#   7]+0.135*[#   4]+0.135*[#   8]+0.111*[#   1]
          +0.111*[#  10]+0.045*[#   5]+0.045*[#   9]+0.007*[#   2]+0.007*[#   6]
          
    |psi|^2 = 0.977
==== e(   4) =    -6.02741 eV ==== 
     psi = 0.227*[#   1]+0.227*[#  10]+0.212*[#   7]+0.212*[#   3]+0.033*[#   4]
          +0.033*[#   8]+0.011*[#   5]+0.011*[#   9]+0.008*[#   2]+0.008*[#   6]
          
    |psi|^2 = 0.983
==== e(   5) =    -4.71749 eV ==== 
     psi = 0.371*[#   5]+0.371*[#   9]+0.124*[#   4]+0.124*[#   8]
    |psi|^2 = 0.990
==== e(   6) =    -1.17565 eV ==== 
     psi = 0.149*[#   2]+0.149*[#   6]+0.131*[#   4]+0.131*[#   8]+0.111*[#   3]
          +0.111*[#   7]+0.043*[#   5]+0.043*[#   9]+0.004*[#   1]+0.004*[#  10]
          
    |psi|^2 = 0.877
==== e(   7) =     0.50985 eV ==== 
     psi = 0.083*[#   2]+0.083*[#   6]+0.074*[#   4]+0.074*[#   8]+0.072*[#   1]
          +0.072*[#  10]+0.049*[#   3]+0.049*[#   7]+0.025*[#   5]+0.025*[#   9]
          
    |psi|^2 = 0.606
==== e(   8) =     1.31973 eV ==== 
     psi = 0.187*[#   1]+0.187*[#  10]+0.099*[#   3]+0.099*[#   7]+0.066*[#   2]
          +0.066*[#   6]+0.009*[#   4]+0.009*[#   8]+0.003*[#   5]+0.003*[#   9]
          
    |psi|^2 = 0.729
==== e(   9) =     2.94877 eV ==== 
     psi = 0.028*[#   1]+0.028*[#  10]+0.007*[#   3]+0.007*[#   7]+0.002*[#   4]
          +0.002*[#   8]+0.002*[#   2]+0.002*[#   6]
    |psi|^2 = 0.078
==== e(  10) =     2.98860 eV ==== 
     psi = 0.269*[#   5]+0.269*[#   9]+0.089*[#   4]+0.089*[#   8]
    |psi|^2 = 0.718

 k =  -0.4250000000  0.2453810624  0.0000000000
==== e(   1) =   -11.95703 eV ==== 
     psi = 0.326*[#   2]+0.326*[#   6]+0.078*[#   4]+0.078*[#   8]+0.065*[#   1]
          +0.065*[#  10]+0.026*[#   5]+0.026*[#   9]
    |psi|^2 = 0.991
==== e(   2) =    -9.94041 eV ==== 
     psi = 0.216*[#   2]+0.216*[#   6]+0.110*[#   1]+0.110*[#  10]+0.109*[#   4]
          +0.109*[#   8]+0.037*[#   5]+0.036*[#   9]+0.022*[#   3]+0.022*[#   7]
          
    |psi|^2 = 0.986
==== e(   3) =    -6.93256 eV ==== 
     psi = 0.194*[#   3]+0.194*[#   7]+0.125*[#   1]+0.125*[#  10]+0.125*[#   4]
          +0.125*[#   8]+0.042*[#   5]+0.042*[#   9]+0.003*[#   2]+0.003*[#   6]
          
    |psi|^2 = 0.978
==== e(   4) =    -6.05508 eV ==== 
     psi = 0.222*[#   1]+0.222*[#  10]+0.216*[#   7]+0.215*[#   3]+0.035*[#   4]
          +0.035*[#   8]+0.012*[#   5]+0.012*[#   9]+0.008*[#   2]+0.008*[#   6]
          
    |psi|^2 = 0.983
==== e(   5) =    -4.75800 eV ==== 
     psi = 0.371*[#   5]+0.371*[#   9]+0.124*[#   4]+0.124*[#   8]
    |psi|^2 = 0.990
==== e(   6) =    -1.19643 eV ==== 
     psi = 0.152*[#   2]+0.152*[#   6]+0.124*[#   4]+0.124*[#   8]+0.115*[#   3]
          +0.115*[#   7]+0.041*[#   5]+0.041*[#   9]+0.003*[#   1]+0.003*[#  10]
          
    |psi|^2 = 0.871
==== e(   7) =     0.41058 eV ==== 
     psi = 0.086*[#   2]+0.086*[#   6]+0.080*[#   4]+0.080*[#   8]+0.074*[#   1]
          +0.074*[#  10]+0.046*[#   3]+0.046*[#   7]+0.027*[#   5]+0.027*[#   9]
          
    |psi|^2 = 0.628
==== e(   8) =     1.31505 eV ==== 
     psi = 0.182*[#   1]+0.182*[#  10]+0.098*[#   3]+0.098*[#   7]+0.067*[#   2]
          +0.067*[#   6]+0.009*[#   4]+0.009*[#   8]+0.003*[#   5]+0.003*[#   9]
          
    |psi|^2 = 0.718
==== e(   9) =     2.99358 eV ==== 
     psi = 0.261*[#   5]+0.261*[#   9]+0.087*[#   4]+0.087*[#   8]
    |psi|^2 = 0.696
==== e(  10) =     3.16389 eV ==== 
     psi = 0.033*[#   1]+0.033*[#  10]+0.011*[#   3]+0.011*[#   7]+0.002*[#   2]
          +0.002*[#   4]+0.002*[#   6]+0.002*[#   8]
    |psi|^2 = 0.099

 k =  -0.4500000000  0.2598152425  0.0000000000
==== e(   1) =   -11.82596 eV ==== 
     psi = 0.326*[#   2]+0.326*[#   6]+0.076*[#   4]+0.076*[#   8]+0.067*[#   1]
          +0.067*[#  10]+0.026*[#   5]+0.026*[#   9]
    |psi|^2 = 0.992
==== e(   2) =   -10.07992 eV ==== 
     psi = 0.217*[#   2]+0.217*[#   6]+0.119*[#   4]+0.119*[#   8]+0.101*[#   1]
          +0.101*[#  10]+0.040*[#   5]+0.040*[#   9]+0.016*[#   3]+0.016*[#   7]
          
    |psi|^2 = 0.986
==== e(   3) =    -6.94165 eV ==== 
     psi = 0.197*[#   3]+0.196*[#   7]+0.136*[#   1]+0.136*[#  10]+0.117*[#   4]
          +0.117*[#   8]+0.039*[#   5]+0.039*[#   9]+0.001*[#   2]+0.001*[#   6]
          
    |psi|^2 = 0.978
==== e(   4) =    -6.07770 eV ==== 
     psi = 0.218*[#   7]+0.218*[#   3]+0.217*[#   1]+0.217*[#  10]+0.036*[#   4]
          +0.036*[#   8]+0.012*[#   5]+0.012*[#   9]+0.008*[#   2]+0.008*[#   6]
          
    |psi|^2 = 0.983
==== e(   5) =    -4.78712 eV ==== 
     psi = 0.371*[#   5]+0.371*[#   9]+0.124*[#   4]+0.124*[#   8]
    |psi|^2 = 0.991
==== e(   6) =    -1.20981 eV ==== 
     psi = 0.155*[#   2]+0.155*[#   6]+0.119*[#   4]+0.119*[#   8]+0.118*[#   3]
          +0.118*[#   7]+0.039*[#   5]+0.039*[#   9]+0.002*[#   1]+0.002*[#  10]
          
    |psi|^2 = 0.865
==== e(   7) =     0.33725 eV ==== 
     psi = 0.089*[#   2]+0.089*[#   6]+0.086*[#   4]+0.086*[#   8]+0.076*[#   1]
          +0.076*[#  10]+0.043*[#   3]+0.043*[#   7]+0.029*[#   5]+0.029*[#   9]
          
    |psi|^2 = 0.645
==== e(   8) =     1.30918 eV ==== 
     psi = 0.178*[#   1]+0.178*[#  10]+0.097*[#   3]+0.097*[#   7]+0.068*[#   2]
          +0.068*[#   6]+0.009*[#   4]+0.009*[#   8]+0.003*[#   5]+0.003*[#   9]
          
    |psi|^2 = 0.710
==== e(   9) =     2.99319 eV ==== 
     psi = 0.256*[#   5]+0.256*[#   9]+0.085*[#   4]+0.085*[#   8]
    |psi|^2 = 0.682
==== e(  10) =     3.39592 eV ==== 
     psi = 0.038*[#   1]+0.038*[#  10]+0.015*[#   3]+0.015*[#   7]+0.003*[#   2]
          +0.003*[#   6]+0.003*[#   4]+0.003*[#   8]
    |psi|^2 = 0.119

 k =  -0.4750000000  0.2742494226  0.0000000000
==== e(   1) =   -11.73337 eV ==== 
     psi = 0.328*[#   2]+0.328*[#   6]+0.074*[#   4]+0.074*[#   8]+0.070*[#   1]
          +0.070*[#  10]+0.025*[#   5]+0.025*[#   9]
    |psi|^2 = 0.992
==== e(   2) =   -10.17911 eV ==== 
     psi = 0.217*[#   2]+0.217*[#   6]+0.126*[#   4]+0.126*[#   8]+0.095*[#   1]
          +0.095*[#  10]+0.042*[#   5]+0.042*[#   9]+0.013*[#   3]+0.013*[#   7]
          
    |psi|^2 = 0.985
==== e(   3) =    -6.94424 eV ==== 
     psi = 0.197*[#   3]+0.197*[#   7]+0.142*[#   1]+0.142*[#  10]+0.112*[#   4]
          +0.112*[#   8]+0.037*[#   5]+0.037*[#   9]
    |psi|^2 = 0.979
==== e(   4) =    -6.09278 eV ==== 
     psi = 0.220*[#   7]+0.220*[#   3]+0.214*[#   1]+0.214*[#  10]+0.037*[#   4]
          +0.037*[#   8]+0.013*[#   5]+0.013*[#   9]+0.007*[#   2]+0.007*[#   6]
          
    |psi|^2 = 0.983
==== e(   5) =    -4.80466 eV ==== 
     psi = 0.371*[#   5]+0.371*[#   9]+0.124*[#   4]+0.124*[#   8]
    |psi|^2 = 0.991
==== e(   6) =    -1.21718 eV ==== 
     psi = 0.156*[#   2]+0.156*[#   6]+0.120*[#   3]+0.120*[#   7]+0.116*[#   4]
          +0.116*[#   8]+0.038*[#   5]+0.038*[#   9]
    |psi|^2 = 0.862
==== e(   7) =     0.29222 eV ==== 
     psi = 0.090*[#   2]+0.090*[#   6]+0.089*[#   4]+0.089*[#   8]+0.078*[#   1]
          +0.078*[#  10]+0.041*[#   3]+0.041*[#   7]+0.030*[#   5]+0.030*[#   9]
          
    |psi|^2 = 0.655
==== e(   8) =     1.30458 eV ==== 
     psi = 0.175*[#   1]+0.175*[#  10]+0.096*[#   3]+0.096*[#   7]+0.069*[#   2]
          +0.069*[#   6]+0.009*[#   4]+0.009*[#   8]+0.003*[#   5]+0.003*[#   9]
          
    |psi|^2 = 0.705
==== e(   9) =     2.99151 eV ==== 
     psi = 0.253*[#   5]+0.253*[#   9]+0.084*[#   4]+0.084*[#   8]
    |psi|^2 = 0.673
==== e(  10) =     3.64182 eV ==== 
     psi = 0.041*[#   1]+0.041*[#  10]+0.020*[#   3]+0.020*[#   7]+0.003*[#   2]
          +0.004*[#   6]+0.003*[#   4]+0.003*[#   8]
    |psi|^2 = 0.137

 k =   0.5000000000 -0.2886836028  0.0000000000
==== e(   1) =   -11.69929 eV ==== 
     psi = 0.329*[#   2]+0.329*[#   6]+0.073*[#   4]+0.073*[#   8]+0.070*[#   1]
          +0.070*[#  10]+0.024*[#   5]+0.024*[#   9]
    |psi|^2 = 0.992
==== e(   2) =   -10.21564 eV ==== 
     psi = 0.217*[#   2]+0.217*[#   6]+0.129*[#   4]+0.129*[#   8]+0.092*[#   1]
          +0.092*[#  10]+0.043*[#   5]+0.043*[#   9]+0.012*[#   3]+0.012*[#   7]
          
    |psi|^2 = 0.985
==== e(   3) =    -6.94457 eV ==== 
     psi = 0.198*[#   3]+0.197*[#   7]+0.145*[#   1]+0.145*[#  10]+0.110*[#   4]
          +0.110*[#   8]+0.037*[#   5]+0.037*[#   9]
    |psi|^2 = 0.979
==== e(   4) =    -6.09807 eV ==== 
     psi = 0.221*[#   7]+0.221*[#   3]+0.213*[#   1]+0.213*[#  10]+0.038*[#   4]
          +0.038*[#   8]+0.013*[#   5]+0.013*[#   9]+0.007*[#   2]+0.007*[#   6]
          
    |psi|^2 = 0.983
==== e(   5) =    -4.81052 eV ==== 
     psi = 0.371*[#   5]+0.371*[#   9]+0.124*[#   4]+0.124*[#   8]
    |psi|^2 = 0.991
==== e(   6) =    -1.21951 eV ==== 
     psi = 0.156*[#   2]+0.156*[#   6]+0.121*[#   3]+0.121*[#   7]+0.114*[#   4]
          +0.114*[#   8]+0.038*[#   5]+0.038*[#   9]
    |psi|^2 = 0.860
==== e(   7) =     0.27704 eV ==== 
     psi = 0.091*[#   2]+0.091*[#   6]+0.090*[#   4]+0.090*[#   8]+0.078*[#   1]
          +0.078*[#  10]+0.041*[#   3]+0.041*[#   7]+0.030*[#   5]+0.030*[#   9]
          
    |psi|^2 = 0.659
==== e(   8) =     1.30289 eV ==== 
     psi = 0.175*[#   1]+0.175*[#  10]+0.096*[#   3]+0.096*[#   7]+0.069*[#   2]
          +0.069*[#   6]+0.009*[#   4]+0.009*[#   8]+0.003*[#   5]+0.003*[#   9]
          
    |psi|^2 = 0.704
==== e(   9) =     2.99072 eV ==== 
     psi = 0.252*[#   5]+0.252*[#   9]+0.084*[#   4]+0.084*[#   8]
    |psi|^2 = 0.671
==== e(  10) =     3.90249 eV ==== 
     psi = 0.054*[#   1]+0.053*[#  10]+0.043*[#   3]+0.042*[#   7]+0.006*[#   4]
          +0.006*[#   8]+0.002*[#   2]+0.002*[#   5]+0.002*[#   6]+0.002*[#   9]
          
    |psi|^2 = 0.211

 k =   0.0000000000  0.0288683603  0.0000000000
==== e(   1) =   -13.67153 eV ==== 
     psi = 0.418*[#   2]+0.418*[#   6]+0.063*[#   1]+0.063*[#  10]+0.013*[#   3]
          +0.013*[#   7]+0.001*[#   5]+0.001*[#   9]
    |psi|^2 = 0.991
==== e(   2) =    -9.13303 eV ==== 
     psi = 0.206*[#   3]+0.206*[#   7]+0.189*[#   1]+0.189*[#  10]+0.085*[#   2]
          +0.085*[#   6]
    |psi|^2 = 0.959
==== e(   3) =    -5.88147 eV ==== 
     psi = 0.275*[#   1]+0.275*[#  10]+0.194*[#   3]+0.194*[#   7]+0.017*[#   2]
          +0.017*[#   6]
    |psi|^2 = 0.973
==== e(   4) =    -3.48079 eV ==== 
     psi = 0.477*[#   5]+0.477*[#   9]+0.007*[#   2]+0.007*[#   6]+0.005*[#   3]
          +0.005*[#   7]
    |psi|^2 = 0.978
==== e(   5) =    -3.41774 eV ==== 
     psi = 0.489*[#   4]+0.489*[#   8]
    |psi|^2 = 0.978
==== e(   6) =    -1.04300 eV ==== 
     psi = 0.238*[#   3]+0.238*[#   7]+0.180*[#   2]+0.180*[#   6]+0.052*[#   1]
          +0.052*[#  10]+0.011*[#   5]+0.011*[#   9]
    |psi|^2 = 0.963
==== e(   7) =     0.50699 eV ==== 
     psi = 0.447*[#   5]+0.447*[#   9]+0.002*[#   2]+0.002*[#   6]
    |psi|^2 = 0.898
==== e(   8) =     0.53478 eV ==== 
     psi = 0.451*[#   4]+0.451*[#   8]
    |psi|^2 = 0.902
==== e(   9) =     0.77496 eV ==== 
     psi = 0.130*[#   1]+0.130*[#  10]+0.082*[#   2]+0.082*[#   6]+0.003*[#   3]
          +0.002*[#   7]
    |psi|^2 = 0.430
==== e(  10) =     1.21422 eV ==== 
     psi = 0.020*[#  10]+0.020*[#   1]+0.012*[#   3]+0.012*[#   7]+0.002*[#   6]
          +0.002*[#   2]+0.001*[#   5]+0.001*[#   9]
    |psi|^2 = 0.071

 k =  -0.0250000000  0.0433025404  0.0000000000
==== e(   1) =   -13.65797 eV ==== 
     psi = 0.416*[#   2]+0.416*[#   6]+0.063*[#   1]+0.063*[#  10]+0.013*[#   3]
          +0.013*[#   7]+0.003*[#   5]+0.003*[#   9]
    |psi|^2 = 0.991
==== e(   2) =    -9.12936 eV ==== 
     psi = 0.205*[#   3]+0.205*[#   7]+0.189*[#   1]+0.189*[#  10]+0.085*[#   2]
          +0.085*[#   6]
    |psi|^2 = 0.960
==== e(   3) =    -5.88116 eV ==== 
     psi = 0.275*[#   1]+0.275*[#  10]+0.194*[#   3]+0.194*[#   7]+0.017*[#   2]
          +0.017*[#   6]
    |psi|^2 = 0.973
==== e(   4) =    -3.60601 eV ==== 
     psi = 0.349*[#   5]+0.349*[#   9]+0.108*[#   4]+0.108*[#   8]+0.017*[#   2]
          +0.017*[#   6]+0.014*[#   3]+0.014*[#   7]
    |psi|^2 = 0.979
==== e(   5) =    -3.44873 eV ==== 
     psi = 0.372*[#   4]+0.372*[#   8]+0.117*[#   5]+0.117*[#   9]
    |psi|^2 = 0.979
==== e(   6) =    -0.93962 eV ==== 
     psi = 0.231*[#   3]+0.231*[#   7]+0.166*[#   2]+0.166*[#   6]+0.054*[#   1]
          +0.054*[#  10]+0.021*[#   5]+0.021*[#   9]+0.009*[#   4]+0.008*[#   8]
          
    |psi|^2 = 0.960
==== e(   7) =     0.48565 eV ==== 
     psi = 0.315*[#   5]+0.315*[#   9]+0.127*[#   4]+0.127*[#   8]+0.004*[#   2]
          +0.004*[#   6]
    |psi|^2 = 0.894
==== e(   8) =     0.59081 eV ==== 
     psi = 0.318*[#   4]+0.318*[#   8]+0.128*[#   5]+0.128*[#   9]+0.002*[#   1]
          +0.002*[#  10]
    |psi|^2 = 0.897
==== e(   9) =     0.79495 eV ==== 
     psi = 0.126*[#   1]+0.126*[#  10]+0.083*[#   2]+0.083*[#   6]+0.003*[#   4]
          +0.003*[#   8]+0.002*[#   5]+0.002*[#   3]+0.002*[#   9]+0.002*[#   7]
          
    |psi|^2 = 0.432
==== e(  10) =     1.23306 eV ==== 
     psi = 0.020*[#  10]+0.020*[#   1]+0.012*[#   3]+0.012*[#   7]+0.003*[#   5]
          +0.003*[#   9]+0.002*[#   6]+0.002*[#   2]
    |psi|^2 = 0.075

 k =  -0.0500000000  0.0577367206  0.0000000000
==== e(   1) =   -13.63087 eV ==== 
     psi = 0.412*[#   2]+0.412*[#   6]+0.063*[#   1]+0.063*[#  10]+0.012*[#   3]
          +0.012*[#   7]+0.005*[#   5]+0.005*[#   9]+0.004*[#   4]+0.004*[#   8]
          
    |psi|^2 = 0.991
==== e(   2) =    -9.12234 eV ==== 
     psi = 0.203*[#   3]+0.203*[#   7]+0.190*[#   1]+0.190*[#  10]+0.087*[#   2]
          +0.087*[#   6]
    |psi|^2 = 0.960
==== e(   3) =    -5.88066 eV ==== 
     psi = 0.275*[#   1]+0.275*[#  10]+0.194*[#   3]+0.194*[#   7]+0.016*[#   2]
          +0.016*[#   6]+0.001*[#   5]+0.001*[#   9]
    |psi|^2 = 0.974
==== e(   4) =    -3.82630 eV ==== 
     psi = 0.244*[#   5]+0.244*[#   9]+0.188*[#   4]+0.188*[#   8]+0.032*[#   2]
          +0.032*[#   6]+0.026*[#   3]+0.026*[#   7]
    |psi|^2 = 0.980
==== e(   5) =    -3.50633 eV ==== 
     psi = 0.275*[#   4]+0.275*[#   8]+0.215*[#   5]+0.215*[#   9]
    |psi|^2 = 0.979
==== e(   6) =    -0.77374 eV ==== 
     psi = 0.221*[#   3]+0.221*[#   7]+0.144*[#   2]+0.144*[#   6]+0.058*[#   1]
          +0.058*[#  10]+0.030*[#   4]+0.030*[#   8]+0.026*[#   5]+0.025*[#   9]
          
    |psi|^2 = 0.956
==== e(   7) =     0.45684 eV ==== 
     psi = 0.242*[#   5]+0.242*[#   9]+0.186*[#   4]+0.187*[#   8]+0.010*[#   2]
          +0.010*[#   6]+0.003*[#   1]+0.003*[#  10]+0.001*[#   3]+0.001*[#   7]
          
    |psi|^2 = 0.885
==== e(   8) =     0.69311 eV ==== 
     psi = 0.224*[#   4]+0.224*[#   8]+0.189*[#   5]+0.189*[#   9]+0.015*[#   1]
          +0.015*[#  10]+0.003*[#   2]+0.003*[#   6]+0.003*[#   3]+0.003*[#   7]
          
    |psi|^2 = 0.870
==== e(   9) =     0.84241 eV ==== 
     psi = 0.109*[#   1]+0.108*[#  10]+0.083*[#   2]+0.083*[#   6]+0.025*[#   4]
          +0.025*[#   8]+0.011*[#   5]+0.011*[#   9]
    |psi|^2 = 0.457
==== e(  10) =     1.26837 eV ==== 
     psi = 0.020*[#  10]+0.020*[#   1]+0.013*[#   3]+0.013*[#   7]+0.003*[#   5]
          +0.003*[#   9]+0.003*[#   4]+0.003*[#   8]+0.002*[#   6]+0.001*[#   2]
          
    |psi|^2 = 0.082

 k =  -0.0750000000  0.0721709007  0.0000000000
==== e(   1) =   -13.59033 eV ==== 
     psi = 0.407*[#   2]+0.407*[#   6]+0.062*[#   1]+0.062*[#  10]+0.012*[#   3]
          +0.012*[#   7]+0.008*[#   4]+0.008*[#   8]+0.007*[#   5]+0.007*[#   9]
          
    |psi|^2 = 0.991
==== e(   2) =    -9.11271 eV ==== 
     psi = 0.199*[#   3]+0.199*[#   7]+0.191*[#   1]+0.191*[#  10]+0.089*[#   2]
          +0.090*[#   6]
    |psi|^2 = 0.961
==== e(   3) =    -5.88042 eV ==== 
     psi = 0.275*[#   1]+0.275*[#  10]+0.193*[#   3]+0.193*[#   7]+0.015*[#   2]
          +0.015*[#   6]+0.002*[#   4]+0.002*[#   8]+0.002*[#   5]+0.002*[#   9]
          
    |psi|^2 = 0.975
==== e(   4) =    -4.10499 eV ==== 
     psi = 0.220*[#   4]+0.220*[#   8]+0.187*[#   5]+0.187*[#   9]+0.046*[#   2]
          +0.046*[#   6]+0.038*[#   3]+0.038*[#   7]
    |psi|^2 = 0.981
==== e(   5) =    -3.58537 eV ==== 
     psi = 0.267*[#   5]+0.267*[#   9]+0.222*[#   4]+0.222*[#   8]
    |psi|^2 = 0.980
==== e(   6) =    -0.60384 eV ==== 
     psi = 0.205*[#   3]+0.205*[#   7]+0.120*[#   2]+0.120*[#   6]+0.063*[#   4]
          +0.063*[#   8]+0.060*[#   1]+0.060*[#  10]+0.027*[#   5]+0.027*[#   9]
          
    |psi|^2 = 0.950
==== e(   7) =     0.44595 eV ==== 
     psi = 0.201*[#   5]+0.201*[#   9]+0.195*[#   8]+0.195*[#   4]+0.016*[#   2]
          +0.016*[#   6]+0.014*[#   1]+0.014*[#  10]+0.010*[#   3]+0.010*[#   7]
          
    |psi|^2 = 0.873
==== e(   8) =     0.81528 eV ==== 
     psi = 0.170*[#   9]+0.170*[#   5]+0.113*[#   4]+0.113*[#   8]+0.057*[#   1]
          +0.057*[#  10]+0.025*[#   2]+0.025*[#   6]+0.004*[#   3]+0.004*[#   7]
          
    |psi|^2 = 0.738
==== e(   9) =     0.94116 eV ==== 
     psi = 0.103*[#   4]+0.103*[#   8]+0.069*[#   5]+0.068*[#   9]+0.065*[#   2]
          +0.065*[#   6]+0.056*[#   1]+0.056*[#  10]
    |psi|^2 = 0.587
==== e(  10) =     1.31776 eV ==== 
     psi = 0.020*[#  10]+0.020*[#   1]+0.015*[#   3]+0.015*[#   7]+0.006*[#   4]
          +0.006*[#   8]+0.003*[#   5]+0.004*[#   9]+0.001*[#   6]+0.001*[#   2]
          
    |psi|^2 = 0.091

 k =  -0.1000000000  0.0866050808  0.0000000000
==== e(   1) =   -13.53643 eV ==== 
     psi = 0.400*[#   2]+0.400*[#   6]+0.061*[#   1]+0.061*[#  10]+0.014*[#   4]
          +0.014*[#   8]+0.011*[#   3]+0.011*[#   7]+0.010*[#   5]+0.010*[#   9]
          
    |psi|^2 = 0.991
==== e(   2) =    -9.10154 eV ==== 
     psi = 0.195*[#   3]+0.194*[#   7]+0.192*[#   1]+0.192*[#  10]+0.093*[#   2]
          +0.093*[#   6]+0.001*[#   4]+0.001*[#   8]
    |psi|^2 = 0.962
==== e(   3) =    -5.88093 eV ==== 
     psi = 0.275*[#   1]+0.275*[#  10]+0.192*[#   3]+0.193*[#   7]+0.014*[#   2]
          +0.014*[#   6]+0.003*[#   4]+0.003*[#   8]+0.002*[#   5]+0.003*[#   9]
          
    |psi|^2 = 0.975
==== e(   4) =    -4.41420 eV ==== 
     psi = 0.233*[#   4]+0.233*[#   8]+0.153*[#   5]+0.153*[#   9]+0.056*[#   2]
          +0.056*[#   6]+0.049*[#   3]+0.049*[#   7]
    |psi|^2 = 0.982
==== e(   5) =    -3.68064 eV ==== 
     psi = 0.299*[#   5]+0.299*[#   9]+0.191*[#   4]+0.191*[#   8]
    |psi|^2 = 0.981
==== e(   6) =    -0.48850 eV ==== 
     psi = 0.179*[#   3]+0.179*[#   7]+0.106*[#   4]+0.106*[#   8]+0.100*[#   2]
          +0.100*[#   6]+0.056*[#   1]+0.056*[#  10]+0.031*[#   5]+0.031*[#   9]
          
    |psi|^2 = 0.942
==== e(   7) =     0.48495 eV ==== 
     psi = 0.170*[#   8]+0.170*[#   4]+0.164*[#   5]+0.164*[#   9]+0.042*[#   1]
          +0.041*[#  10]+0.031*[#   3]+0.031*[#   7]+0.020*[#   2]+0.020*[#   6]
          
    |psi|^2 = 0.854
==== e(   8) =     0.93013 eV ==== 
     psi = 0.119*[#   5]+0.119*[#   9]+0.080*[#   1]+0.080*[#  10]+0.057*[#   2]
          +0.057*[#   6]+0.040*[#   4]+0.040*[#   8]+0.001*[#   3]+0.001*[#   7]
          
    |psi|^2 = 0.596
==== e(   9) =     1.11418 eV ==== 
     psi = 0.156*[#   8]+0.156*[#   4]+0.149*[#   5]+0.149*[#   9]+0.038*[#   2]
          +0.038*[#   6]+0.014*[#   1]+0.014*[#  10]+0.005*[#   7]+0.005*[#   3]
          
    |psi|^2 = 0.724
==== e(  10) =     1.38127 eV ==== 
     psi = 0.020*[#  10]+0.020*[#   1]+0.018*[#   3]+0.018*[#   7]+0.011*[#   4]
          +0.011*[#   8]+0.003*[#   5]+0.003*[#   9]+0.002*[#   2]+0.002*[#   6]
          
    |psi|^2 = 0.108

 k =  -0.1250000000  0.1010392610  0.0000000000
==== e(   1) =   -13.46936 eV ==== 
     psi = 0.392*[#   2]+0.392*[#   6]+0.060*[#   1]+0.060*[#  10]+0.020*[#   4]
          +0.020*[#   8]+0.013*[#   5]+0.013*[#   9]+0.010*[#   3]+0.010*[#   7]
          
    |psi|^2 = 0.991
==== e(   2) =    -9.09049 eV ==== 
     psi = 0.193*[#   1]+0.193*[#  10]+0.188*[#   3]+0.188*[#   7]+0.098*[#   2]
          +0.098*[#   6]+0.002*[#   4]+0.002*[#   8]+0.001*[#   5]+0.001*[#   9]
          
    |psi|^2 = 0.964
==== e(   3) =    -5.88317 eV ==== 
     psi = 0.275*[#   1]+0.275*[#  10]+0.192*[#   3]+0.192*[#   7]+0.013*[#   2]
          +0.013*[#   6]+0.006*[#   4]+0.006*[#   8]+0.003*[#   5]+0.003*[#   9]
          
    |psi|^2 = 0.976
==== e(   4) =    -4.73553 eV ==== 
     psi = 0.237*[#   4]+0.237*[#   8]+0.132*[#   5]+0.132*[#   9]+0.064*[#   2]
          +0.063*[#   6]+0.059*[#   3]+0.059*[#   7]
    |psi|^2 = 0.982
==== e(   5) =    -3.78679 eV ==== 
     psi = 0.319*[#   5]+0.319*[#   9]+0.171*[#   4]+0.171*[#   8]
    |psi|^2 = 0.983
==== e(   6) =    -0.45824 eV ==== 
     psi = 0.148*[#   4]+0.148*[#   8]+0.146*[#   3]+0.146*[#   7]+0.089*[#   2]
          +0.089*[#   6]+0.044*[#   1]+0.044*[#  10]+0.040*[#   5]+0.040*[#   9]
          
    |psi|^2 = 0.934
==== e(   7) =     0.58285 eV ==== 
     psi = 0.129*[#   8]+0.129*[#   4]+0.119*[#   5]+0.119*[#   9]+0.085*[#   1]
          +0.085*[#  10]+0.059*[#   3]+0.059*[#   7]+0.020*[#   2]+0.020*[#   6]
          
    |psi|^2 = 0.822
==== e(   8) =     1.05945 eV ==== 
     psi = 0.106*[#   5]+0.106*[#   9]+0.072*[#   2]+0.073*[#   6]+0.067*[#   1]
          +0.066*[#  10]+0.029*[#   4]+0.029*[#   8]
    |psi|^2 = 0.549
==== e(   9) =     1.32460 eV ==== 
     psi = 0.187*[#   5]+0.186*[#   9]+0.134*[#   8]+0.134*[#   4]+0.020*[#   2]
          +0.020*[#   6]+0.010*[#   7]+0.010*[#   3]+0.006*[#   1]+0.006*[#  10]
          
    |psi|^2 = 0.712
==== e(  10) =     1.46944 eV ==== 
     psi = 0.040*[#   4]+0.040*[#   8]+0.024*[#   3]+0.024*[#   7]+0.017*[#  10]
          +0.017*[#   1]+0.007*[#   9]+0.007*[#   5]+0.006*[#   2]+0.006*[#   6]
          
    |psi|^2 = 0.188

 k =  -0.1500000000  0.1154734411  0.0000000000
==== e(   1) =   -13.38932 eV ==== 
     psi = 0.384*[#   2]+0.384*[#   6]+0.059*[#   1]+0.059*[#  10]+0.027*[#   4]
          +0.027*[#   8]+0.016*[#   5]+0.016*[#   9]+0.009*[#   3]+0.009*[#   7]
          
    |psi|^2 = 0.991
==== e(   2) =    -9.08178 eV ==== 
     psi = 0.194*[#   1]+0.194*[#  10]+0.180*[#   3]+0.180*[#   7]+0.104*[#   2]
          +0.104*[#   6]+0.004*[#   4]+0.004*[#   8]+0.002*[#   5]+0.002*[#   9]
          
    |psi|^2 = 0.966
==== e(   3) =    -5.88864 eV ==== 
     psi = 0.273*[#   1]+0.273*[#  10]+0.190*[#   3]+0.190*[#   7]+0.011*[#   2]
          +0.011*[#   6]+0.009*[#   4]+0.009*[#   8]+0.005*[#   5]+0.005*[#   9]
          
    |psi|^2 = 0.977
==== e(   4) =    -5.05594 eV ==== 
     psi = 0.235*[#   4]+0.235*[#   8]+0.116*[#   5]+0.116*[#   9]+0.070*[#   3]
          +0.070*[#   7]+0.068*[#   2]+0.068*[#   6]+0.002*[#   1]+0.002*[#  10]
          
    |psi|^2 = 0.982
==== e(   5) =    -3.89901 eV ==== 
     psi = 0.333*[#   5]+0.333*[#   9]+0.158*[#   4]+0.158*[#   8]
    |psi|^2 = 0.984
==== e(   6) =    -0.49608 eV ==== 
     psi = 0.176*[#   4]+0.176*[#   8]+0.120*[#   3]+0.120*[#   7]+0.087*[#   2]
          +0.087*[#   6]+0.049*[#   5]+0.049*[#   9]+0.033*[#   1]+0.033*[#  10]
          
    |psi|^2 = 0.928
==== e(   7) =     0.70842 eV ==== 
     psi = 0.128*[#   1]+0.128*[#  10]+0.090*[#   8]+0.090*[#   4]+0.077*[#   3]
          +0.077*[#   7]+0.076*[#   5]+0.076*[#   9]+0.019*[#   2]+0.019*[#   6]
          
    |psi|^2 = 0.780
==== e(   8) =     1.21039 eV ==== 
     psi = 0.091*[#   5]+0.091*[#   9]+0.075*[#   2]+0.075*[#   6]+0.049*[#   1]
          +0.048*[#  10]+0.033*[#   4]+0.033*[#   8]+0.006*[#   7]+0.006*[#   3]
          
    |psi|^2 = 0.505
==== e(   9) =     1.49465 eV ==== 
     psi = 0.151*[#   5]+0.151*[#   9]+0.046*[#   8]+0.046*[#   4]+0.016*[#   7]
          +0.016*[#   3]+0.016*[#  10]+0.016*[#   1]+0.001*[#   2]+0.001*[#   6]
          
    |psi|^2 = 0.461
==== e(  10) =     1.63924 eV ==== 
     psi = 0.122*[#   4]+0.122*[#   8]+0.082*[#   9]+0.082*[#   5]+0.028*[#   3]
          +0.028*[#   7]+0.016*[#   2]+0.016*[#   6]+0.004*[#   1]+0.005*[#  10]
          
    |psi|^2 = 0.505

 k =  -0.1750000000  0.1299076212  0.0000000000
==== e(   1) =   -13.29660 eV ==== 
     psi = 0.376*[#   2]+0.376*[#   6]+0.058*[#   1]+0.058*[#  10]+0.034*[#   4]
          +0.034*[#   8]+0.019*[#   5]+0.019*[#   9]+0.008*[#   3]+0.008*[#   7]
          
    |psi|^2 = 0.991
==== e(   2) =    -9.07832 eV ==== 
     psi = 0.194*[#   1]+0.194*[#  10]+0.169*[#   3]+0.169*[#   7]+0.111*[#   2]
          +0.111*[#   6]+0.006*[#   4]+0.006*[#   8]+0.003*[#   5]+0.003*[#   9]
          
    |psi|^2 = 0.968
==== e(   3) =    -5.90094 eV ==== 
     psi = 0.268*[#   1]+0.268*[#  10]+0.187*[#   3]+0.187*[#   7]+0.017*[#   4]
          +0.017*[#   8]+0.010*[#   2]+0.010*[#   6]+0.008*[#   5]+0.008*[#   9]
          
    |psi|^2 = 0.979
==== e(   4) =    -5.36349 eV ==== 
     psi = 0.227*[#   4]+0.227*[#   8]+0.103*[#   5]+0.103*[#   9]+0.084*[#   3]
          +0.084*[#   7]+0.069*[#   2]+0.069*[#   6]+0.008*[#   1]+0.008*[#  10]
          
    |psi|^2 = 0.982
==== e(   5) =    -4.01326 eV ==== 
     psi = 0.343*[#   5]+0.343*[#   9]+0.148*[#   4]+0.148*[#   8]
    |psi|^2 = 0.985
==== e(   6) =    -0.56999 eV ==== 
     psi = 0.188*[#   4]+0.188*[#   8]+0.104*[#   3]+0.104*[#   7]+0.091*[#   2]
          +0.091*[#   6]+0.053*[#   5]+0.053*[#   9]+0.025*[#   1]+0.025*[#  10]
          
    |psi|^2 = 0.923
==== e(   7) =     0.83093 eV ==== 
     psi = 0.159*[#   1]+0.159*[#  10]+0.084*[#   3]+0.083*[#   7]+0.062*[#   8]
          +0.062*[#   4]+0.047*[#   5]+0.047*[#   9]+0.021*[#   2]+0.021*[#   6]
          
    |psi|^2 = 0.745
==== e(   8) =     1.34324 eV ==== 
     psi = 0.066*[#   6]+0.066*[#   2]+0.049*[#   5]+0.049*[#   9]+0.047*[#  10]
          +0.047*[#   1]+0.028*[#   4]+0.027*[#   8]+0.017*[#   7]+0.017*[#   3]
          
    |psi|^2 = 0.413
==== e(   9) =     1.64237 eV ==== 
     psi = 0.157*[#   5]+0.157*[#   9]+0.037*[#   4]+0.038*[#   8]+0.024*[#   3]
          +0.024*[#   7]+0.012*[#  10]+0.012*[#   1]+0.004*[#   2]+0.004*[#   6]
          
    |psi|^2 = 0.469
==== e(  10) =     1.87483 eV ==== 
     psi = 0.130*[#   5]+0.130*[#   9]+0.128*[#   4]+0.128*[#   8]+0.029*[#   3]
          +0.028*[#   7]+0.010*[#   2]+0.010*[#   6]+0.003*[#   1]+0.003*[#  10]
          
    |psi|^2 = 0.597

 k =  -0.2000000000  0.1443418014  0.0000000000
==== e(   1) =   -13.19156 eV ==== 
     psi = 0.368*[#   2]+0.368*[#   6]+0.058*[#   1]+0.058*[#  10]+0.041*[#   4]
          +0.041*[#   8]+0.021*[#   5]+0.021*[#   9]+0.007*[#   3]+0.007*[#   7]
          
    |psi|^2 = 0.991
==== e(   2) =    -9.08379 eV ==== 
     psi = 0.194*[#   1]+0.194*[#  10]+0.156*[#   3]+0.156*[#   7]+0.121*[#   2]
          +0.121*[#   6]+0.010*[#   4]+0.010*[#   8]+0.004*[#   5]+0.004*[#   9]
          
    |psi|^2 = 0.971
==== e(   3) =    -5.93334 eV ==== 
     psi = 0.240*[#   1]+0.240*[#  10]+0.173*[#   3]+0.173*[#   7]+0.047*[#   4]
          +0.047*[#   8]+0.018*[#   5]+0.018*[#   9]+0.011*[#   2]+0.011*[#   6]
          
    |psi|^2 = 0.980
==== e(   4) =    -5.63781 eV ==== 
     psi = 0.194*[#   4]+0.194*[#   8]+0.110*[#   7]+0.110*[#   3]+0.084*[#   5]
          +0.084*[#   9]+0.065*[#   2]+0.065*[#   6]+0.036*[#   1]+0.036*[#  10]
          
    |psi|^2 = 0.980
==== e(   5) =    -4.12628 eV ==== 
     psi = 0.350*[#   5]+0.350*[#   9]+0.141*[#   4]+0.141*[#   8]+0.001*[#   2]
          +0.001*[#   6]
    |psi|^2 = 0.986
==== e(   6) =    -0.65810 eV ==== 
     psi = 0.192*[#   4]+0.192*[#   8]+0.098*[#   2]+0.098*[#   6]+0.096*[#   3]
          +0.096*[#   7]+0.054*[#   5]+0.054*[#   9]+0.020*[#   1]+0.020*[#  10]
          
    |psi|^2 = 0.919
==== e(   7) =     0.94128 eV ==== 
     psi = 0.175*[#   1]+0.175*[#  10]+0.087*[#   3]+0.086*[#   7]+0.045*[#   8]
          +0.045*[#   4]+0.031*[#   5]+0.031*[#   9]+0.025*[#   2]+0.025*[#   6]
          
    |psi|^2 = 0.726
==== e(   8) =     1.40582 eV ==== 
     psi = 0.060*[#  10]+0.059*[#   1]+0.057*[#   6]+0.057*[#   2]+0.032*[#   7]
          +0.032*[#   3]+0.019*[#   4]+0.019*[#   5]+0.019*[#   8]+0.019*[#   9]
          
    |psi|^2 = 0.371
==== e(   9) =     1.83061 eV ==== 
     psi = 0.161*[#   9]+0.161*[#   5]+0.043*[#   4]+0.043*[#   8]+0.030*[#   3]
          +0.030*[#   7]+0.008*[#   2]+0.008*[#   6]+0.006*[#   1]+0.006*[#  10]
          
    |psi|^2 = 0.495
==== e(  10) =     2.10503 eV ==== 
     psi = 0.158*[#   5]+0.158*[#   9]+0.113*[#   4]+0.113*[#   8]+0.025*[#   3]
          +0.025*[#   7]+0.005*[#   1]+0.005*[#  10]+0.002*[#   2]+0.002*[#   6]
          
    |psi|^2 = 0.606

 k =  -0.2250000000  0.1587759815  0.0000000000
==== e(   1) =   -13.07469 eV ==== 
     psi = 0.360*[#   2]+0.360*[#   6]+0.057*[#   1]+0.057*[#  10]+0.048*[#   4]
          +0.048*[#   8]+0.024*[#   5]+0.024*[#   9]+0.006*[#   3]+0.006*[#   7]
          
    |psi|^2 = 0.991
==== e(   2) =    -9.10292 eV ==== 
     psi = 0.191*[#   1]+0.191*[#  10]+0.141*[#   3]+0.141*[#   7]+0.132*[#   2]
          +0.133*[#   6]+0.015*[#   4]+0.015*[#   8]+0.006*[#   5]+0.006*[#   9]
          
    |psi|^2 = 0.973
==== e(   3) =    -6.04627 eV ==== 
     psi = 0.153*[#   4]+0.153*[#   8]+0.130*[#   3]+0.130*[#   7]+0.119*[#   1]
          +0.119*[#  10]+0.056*[#   5]+0.056*[#   9]+0.032*[#   2]+0.032*[#   6]
          
    |psi|^2 = 0.982
==== e(   4) =    -5.81205 eV ==== 
     psi = 0.168*[#   7]+0.168*[#   3]+0.160*[#   1]+0.160*[#  10]+0.084*[#   4]
          +0.084*[#   8]+0.039*[#   5]+0.039*[#   9]+0.038*[#   2]+0.038*[#   6]
          
    |psi|^2 = 0.979
==== e(   5) =    -4.23552 eV ==== 
     psi = 0.355*[#   5]+0.355*[#   9]+0.136*[#   4]+0.136*[#   8]+0.001*[#   2]
          +0.001*[#   6]
    |psi|^2 = 0.987
==== e(   6) =    -0.74831 eV ==== 
     psi = 0.190*[#   4]+0.190*[#   8]+0.106*[#   2]+0.106*[#   6]+0.093*[#   3]
          +0.093*[#   7]+0.053*[#   5]+0.053*[#   9]+0.016*[#   1]+0.016*[#  10]
          
    |psi|^2 = 0.915
==== e(   7) =     1.03814 eV ==== 
     psi = 0.181*[#   1]+0.180*[#  10]+0.090*[#   3]+0.089*[#   7]+0.036*[#   8]
          +0.036*[#   4]+0.029*[#   2]+0.029*[#   6]+0.023*[#   5]+0.023*[#   9]
          
    |psi|^2 = 0.717
==== e(   8) =     1.39235 eV ==== 
     psi = 0.077*[#  10]+0.076*[#   1]+0.059*[#   6]+0.059*[#   2]+0.046*[#   7]
          +0.046*[#   3]+0.016*[#   4]+0.016*[#   8]+0.009*[#   5]+0.009*[#   9]
          
    |psi|^2 = 0.413
==== e(   9) =     2.01433 eV ==== 
     psi = 0.117*[#   9]+0.116*[#   5]+0.034*[#   3]+0.034*[#   7]+0.031*[#   4]
          +0.031*[#   8]+0.004*[#   2]+0.004*[#   6]+0.003*[#   1]+0.003*[#  10]
          
    |psi|^2 = 0.376
==== e(  10) =     2.26543 eV ==== 
     psi = 0.046*[#   5]+0.045*[#   9]+0.016*[#   8]+0.016*[#   4]+0.009*[#   2]
          +0.009*[#   6]+0.006*[#   3]+0.006*[#   7]+0.005*[#   1]+0.005*[#  10]
          
    |psi|^2 = 0.164

 k =  -0.2500000000  0.1732101617  0.0000000000
==== e(   1) =   -12.94663 eV ==== 
     psi = 0.352*[#   2]+0.352*[#   6]+0.057*[#   1]+0.057*[#  10]+0.055*[#   4]
          +0.055*[#   8]+0.026*[#   5]+0.026*[#   9]+0.005*[#   3]+0.005*[#   7]
          
    |psi|^2 = 0.991
==== e(   2) =    -9.14082 eV ==== 
     psi = 0.187*[#   1]+0.187*[#  10]+0.146*[#   2]+0.146*[#   6]+0.123*[#   3]
          +0.123*[#   7]+0.023*[#   4]+0.023*[#   8]+0.009*[#   5]+0.009*[#   9]
          
    |psi|^2 = 0.976
==== e(   3) =    -6.24961 eV ==== 
     psi = 0.199*[#   4]+0.199*[#   8]+0.123*[#   3]+0.123*[#   7]+0.071*[#   5]
          +0.071*[#   9]+0.055*[#   1]+0.055*[#  10]+0.042*[#   2]+0.042*[#   6]
          
    |psi|^2 = 0.980
==== e(   4) =    -5.86989 eV ==== 
     psi = 0.228*[#   1]+0.228*[#  10]+0.192*[#   7]+0.192*[#   3]+0.032*[#   4]
          +0.032*[#   8]+0.020*[#   2]+0.020*[#   6]+0.018*[#   5]+0.018*[#   9]
          
    |psi|^2 = 0.980
==== e(   5) =    -4.33899 eV ==== 
     psi = 0.359*[#   5]+0.359*[#   9]+0.133*[#   4]+0.133*[#   8]+0.001*[#   2]
          +0.001*[#   6]
    |psi|^2 = 0.988
==== e(   6) =    -0.83398 eV ==== 
     psi = 0.186*[#   4]+0.186*[#   8]+0.114*[#   2]+0.114*[#   6]+0.092*[#   3]
          +0.092*[#   7]+0.051*[#   5]+0.051*[#   9]+0.013*[#   1]+0.013*[#  10]
          
    |psi|^2 = 0.911
==== e(   7) =     1.11559 eV ==== 
     psi = 0.166*[#   1]+0.165*[#  10]+0.092*[#   3]+0.092*[#   7]+0.036*[#   8]
          +0.036*[#   4]+0.031*[#   2]+0.031*[#   6]+0.020*[#   5]+0.020*[#   9]
          
    |psi|^2 = 0.690
==== e(   8) =     1.31802 eV ==== 
     psi = 0.105*[#  10]+0.104*[#   1]+0.068*[#   6]+0.068*[#   2]+0.057*[#   7]
          +0.056*[#   3]+0.014*[#   4]+0.014*[#   8]+0.007*[#   5]+0.006*[#   9]
          
    |psi|^2 = 0.499
==== e(   9) =     2.13935 eV ==== 
     psi = 0.057*[#   9]+0.057*[#   5]+0.024*[#   3]+0.024*[#   7]+0.012*[#   4]
          +0.012*[#   8]
    |psi|^2 = 0.188
==== e(  10) =     2.39901 eV ==== 
     psi = 0.050*[#   5]+0.050*[#   9]+0.019*[#   8]+0.019*[#   4]+0.009*[#   2]
          +0.009*[#   6]+0.002*[#   3]+0.002*[#   7]
    |psi|^2 = 0.161

 k =  -0.2750000000  0.1876443418  0.0000000000
==== e(   1) =   -12.80820 eV ==== 
     psi = 0.346*[#   2]+0.346*[#   6]+0.060*[#   4]+0.060*[#   8]+0.057*[#   1]
          +0.057*[#  10]+0.028*[#   5]+0.028*[#   9]+0.004*[#   3]+0.004*[#   7]
          
    |psi|^2 = 0.991
==== e(   2) =    -9.20234 eV ==== 
     psi = 0.179*[#   1]+0.179*[#  10]+0.160*[#   2]+0.160*[#   6]+0.104*[#   3]
          +0.104*[#   7]+0.034*[#   4]+0.034*[#   8]+0.013*[#   5]+0.013*[#   9]
          
    |psi|^2 = 0.979
==== e(   3) =    -6.44880 eV ==== 
     psi = 0.198*[#   4]+0.198*[#   8]+0.136*[#   3]+0.135*[#   7]+0.069*[#   5]
          +0.069*[#   9]+0.049*[#   1]+0.049*[#  10]+0.038*[#   2]+0.038*[#   6]
          
    |psi|^2 = 0.979
==== e(   4) =    -5.89991 eV ==== 
     psi = 0.241*[#   1]+0.241*[#  10]+0.198*[#   7]+0.197*[#   3]+0.023*[#   4]
          +0.023*[#   8]+0.014*[#   2]+0.014*[#   5]+0.014*[#   6]+0.014*[#   9]
          
    |psi|^2 = 0.981
==== e(   5) =    -4.43515 eV ==== 
     psi = 0.361*[#   5]+0.361*[#   9]+0.130*[#   4]+0.130*[#   8]+0.001*[#   2]
          +0.001*[#   6]+0.001*[#   3]+0.001*[#   7]
    |psi|^2 = 0.988
==== e(   6) =    -0.91136 eV ==== 
     psi = 0.179*[#   4]+0.179*[#   8]+0.121*[#   2]+0.121*[#   6]+0.093*[#   3]
          +0.093*[#   7]+0.048*[#   5]+0.048*[#   9]+0.011*[#   1]+0.011*[#  10]
          
    |psi|^2 = 0.906
==== e(   7) =     1.12520 eV ==== 
     psi = 0.078*[#   1]+0.078*[#   3]+0.076*[#   7]+0.076*[#  10]+0.049*[#   8]
          +0.049*[#   4]+0.039*[#   2]+0.039*[#   6]+0.021*[#   9]+0.021*[#   5]
          
    |psi|^2 = 0.526
==== e(   8) =     1.24921 eV ==== 
     psi = 0.199*[#  10]+0.198*[#   1]+0.079*[#   7]+0.078*[#   3]+0.073*[#   6]
          +0.072*[#   2]+0.005*[#   5]+0.005*[#   9]+0.002*[#   4]+0.002*[#   8]
          
    |psi|^2 = 0.713
==== e(   9) =     2.23690 eV ==== 
     psi = 0.033*[#   9]+0.032*[#   5]+0.011*[#   3]+0.011*[#   7]+0.005*[#   4]
          +0.005*[#   8]
    |psi|^2 = 0.099
==== e(  10) =     2.57358 eV ==== 
     psi = 0.045*[#   5]+0.045*[#   9]+0.016*[#   8]+0.016*[#   4]+0.006*[#   2]
          +0.006*[#   6]+0.004*[#   3]+0.004*[#   7]
    |psi|^2 = 0.141

 k =  -0.3000000000  0.2020785219  0.0000000000
==== e(   1) =   -12.66060 eV ==== 
     psi = 0.340*[#   2]+0.340*[#   6]+0.065*[#   4]+0.065*[#   8]+0.058*[#   1]
          +0.058*[#  10]+0.029*[#   5]+0.029*[#   9]+0.003*[#   3]+0.003*[#   7]
          
    |psi|^2 = 0.991
==== e(   2) =    -9.29092 eV ==== 
     psi = 0.175*[#   2]+0.175*[#   6]+0.168*[#   1]+0.168*[#  10]+0.084*[#   3]
          +0.084*[#   7]+0.047*[#   4]+0.047*[#   8]+0.017*[#   5]+0.017*[#   9]
          
    |psi|^2 = 0.982
==== e(   3) =    -6.61492 eV ==== 
     psi = 0.187*[#   4]+0.187*[#   8]+0.151*[#   3]+0.151*[#   7]+0.063*[#   5]
          +0.063*[#   9]+0.057*[#   1]+0.057*[#  10]+0.030*[#   2]+0.030*[#   6]
          
    |psi|^2 = 0.977
==== e(   4) =    -5.92675 eV ==== 
     psi = 0.242*[#   1]+0.242*[#  10]+0.201*[#   7]+0.201*[#   3]+0.022*[#   4]
          +0.022*[#   8]+0.014*[#   5]+0.014*[#   9]+0.012*[#   2]+0.012*[#   6]
          
    |psi|^2 = 0.981
==== e(   5) =    -4.52282 eV ==== 
     psi = 0.363*[#   5]+0.363*[#   9]+0.128*[#   4]+0.128*[#   8]+0.001*[#   2]
          +0.001*[#   6]+0.001*[#   3]+0.001*[#   7]
    |psi|^2 = 0.989
==== e(   6) =    -0.97842 eV ==== 
     psi = 0.170*[#   4]+0.170*[#   8]+0.128*[#   2]+0.128*[#   6]+0.096*[#   3]
          +0.096*[#   7]+0.046*[#   5]+0.046*[#   9]+0.010*[#   1]+0.010*[#  10]
          
    |psi|^2 = 0.900
==== e(   7) =     1.00310 eV ==== 
     psi = 0.063*[#   3]+0.063*[#   7]+0.060*[#   1]+0.060*[#   2]+0.060*[#   6]
          +0.060*[#  10]+0.049*[#   4]+0.049*[#   8]+0.019*[#   5]+0.019*[#   9]
          
    |psi|^2 = 0.504
==== e(   8) =     1.27139 eV ==== 
     psi = 0.215*[#  10]+0.214*[#   1]+0.095*[#   7]+0.095*[#   3]+0.062*[#   6]
          +0.062*[#   2]+0.008*[#   5]+0.008*[#   9]+0.006*[#   4]+0.006*[#   8]
          
    |psi|^2 = 0.770
==== e(   9) =     2.34672 eV ==== 
     psi = 0.026*[#   9]+0.026*[#   5]+0.005*[#   1]+0.005*[#  10]+0.004*[#   3]
          +0.004*[#   7]+0.004*[#   4]+0.004*[#   8]
    |psi|^2 = 0.078
==== e(  10) =     2.76036 eV ==== 
     psi = 0.065*[#   5]+0.065*[#   9]+0.020*[#   8]+0.019*[#   4]+0.004*[#   2]
          +0.004*[#   6]+0.003*[#   3]+0.003*[#   7]
    |psi|^2 = 0.183

 k =  -0.3250000000  0.2165127021  0.0000000000
==== e(   1) =   -12.50547 eV ==== 
     psi = 0.334*[#   2]+0.334*[#   6]+0.069*[#   4]+0.069*[#   8]+0.059*[#   1]
          +0.059*[#  10]+0.030*[#   5]+0.030*[#   9]+0.003*[#   3]+0.003*[#   7]
          
    |psi|^2 = 0.991
==== e(   2) =    -9.40694 eV ==== 
     psi = 0.189*[#   2]+0.189*[#   6]+0.155*[#   1]+0.155*[#  10]+0.065*[#   3]
          +0.065*[#   7]+0.061*[#   4]+0.061*[#   8]+0.022*[#   5]+0.022*[#   9]
          
    |psi|^2 = 0.984
==== e(   3) =    -6.74202 eV ==== 
     psi = 0.173*[#   4]+0.173*[#   8]+0.166*[#   3]+0.166*[#   7]+0.071*[#   1]
          +0.071*[#  10]+0.057*[#   5]+0.057*[#   9]+0.022*[#   2]+0.022*[#   6]
          
    |psi|^2 = 0.977
==== e(   4) =    -5.95471 eV ==== 
     psi = 0.240*[#   1]+0.240*[#  10]+0.204*[#   7]+0.204*[#   3]+0.023*[#   4]
          +0.023*[#   8]+0.014*[#   5]+0.014*[#   9]+0.010*[#   2]+0.010*[#   6]
          
    |psi|^2 = 0.982
==== e(   5) =    -4.60110 eV ==== 
     psi = 0.365*[#   5]+0.364*[#   9]+0.127*[#   4]+0.127*[#   8]+0.001*[#   2]
          +0.001*[#   3]+0.001*[#   6]+0.001*[#   7]
    |psi|^2 = 0.989
==== e(   6) =    -1.03426 eV ==== 
     psi = 0.161*[#   4]+0.161*[#   8]+0.135*[#   2]+0.135*[#   6]+0.099*[#   3]
          +0.099*[#   7]+0.043*[#   5]+0.043*[#   9]+0.008*[#   1]+0.008*[#  10]
          
    |psi|^2 = 0.894
==== e(   7) =     0.85267 eV ==== 
     psi = 0.069*[#   2]+0.069*[#   6]+0.065*[#   1]+0.064*[#  10]+0.059*[#   3]
          +0.059*[#   7]+0.054*[#   4]+0.054*[#   8]+0.021*[#   5]+0.021*[#   9]
          
    |psi|^2 = 0.535
==== e(   8) =     1.29923 eV ==== 
     psi = 0.206*[#  10]+0.206*[#   1]+0.098*[#   3]+0.098*[#   7]+0.062*[#   6]
          +0.062*[#   2]+0.008*[#   5]+0.008*[#   9]+0.007*[#   4]+0.007*[#   8]
          
    |psi|^2 = 0.762
==== e(   9) =     2.47818 eV ==== 
     psi = 0.028*[#   5]+0.028*[#   9]+0.011*[#   1]+0.012*[#  10]+0.005*[#   4]
          +0.005*[#   8]+0.002*[#   3]+0.002*[#   7]
    |psi|^2 = 0.094
==== e(  10) =     2.90727 eV ==== 
     psi = 0.255*[#   5]+0.255*[#   9]+0.093*[#   8]+0.092*[#   4]+0.001*[#   2]
          +0.001*[#   6]
    |psi|^2 = 0.698

 k =  -0.3500000000  0.2309468822  0.0000000000
==== e(   1) =   -12.34523 eV ==== 
     psi = 0.330*[#   2]+0.330*[#   6]+0.072*[#   4]+0.072*[#   8]+0.060*[#   1]
          +0.060*[#  10]+0.031*[#   5]+0.031*[#   9]+0.002*[#   3]+0.002*[#   7]
          
    |psi|^2 = 0.991
==== e(   2) =    -9.54683 eV ==== 
     psi = 0.200*[#   2]+0.200*[#   6]+0.141*[#   1]+0.141*[#  10]+0.076*[#   4]
          +0.076*[#   8]+0.048*[#   3]+0.048*[#   7]+0.027*[#   5]+0.027*[#   9]
          
    |psi|^2 = 0.985
==== e(   3) =    -6.83134 eV ==== 
     psi = 0.178*[#   3]+0.178*[#   7]+0.158*[#   4]+0.158*[#   8]+0.087*[#   1]
          +0.087*[#  10]+0.051*[#   5]+0.051*[#   9]+0.014*[#   2]+0.014*[#   6]
          
    |psi|^2 = 0.977
==== e(   4) =    -5.98430 eV ==== 
     psi = 0.235*[#   1]+0.235*[#  10]+0.207*[#   7]+0.207*[#   3]+0.025*[#   4]
          +0.025*[#   8]+0.015*[#   5]+0.015*[#   9]+0.009*[#   2]+0.009*[#   6]
          
    |psi|^2 = 0.982
==== e(   5) =    -4.66929 eV ==== 
     psi = 0.365*[#   5]+0.365*[#   9]+0.126*[#   4]+0.126*[#   8]+0.002*[#   3]
          +0.002*[#   7]+0.001*[#   2]+0.001*[#   6]
    |psi|^2 = 0.990
==== e(   6) =    -1.07885 eV ==== 
     psi = 0.152*[#   4]+0.152*[#   8]+0.140*[#   2]+0.140*[#   6]+0.103*[#   3]
          +0.103*[#   7]+0.041*[#   5]+0.041*[#   9]+0.007*[#   1]+0.007*[#  10]
          
    |psi|^2 = 0.887
==== e(   7) =     0.70636 eV ==== 
     psi = 0.076*[#   2]+0.075*[#   6]+0.068*[#   1]+0.068*[#  10]+0.061*[#   4]
          +0.061*[#   8]+0.055*[#   3]+0.055*[#   7]+0.023*[#   5]+0.023*[#   9]
          
    |psi|^2 = 0.565
==== e(   8) =     1.31464 eV ==== 
     psi = 0.197*[#  10]+0.197*[#   1]+0.099*[#   3]+0.099*[#   7]+0.064*[#   6]
          +0.064*[#   2]+0.007*[#   4]+0.007*[#   5]+0.007*[#   8]+0.007*[#   9]
          
    |psi|^2 = 0.749
==== e(   9) =     2.62863 eV ==== 
     psi = 0.040*[#   5]+0.041*[#   9]+0.019*[#   1]+0.019*[#  10]+0.009*[#   4]
          +0.009*[#   8]+0.003*[#   3]+0.003*[#   7]+0.001*[#   2]+0.002*[#   6]
          
    |psi|^2 = 0.146
==== e(  10) =     2.97295 eV ==== 
     psi = 0.238*[#   5]+0.238*[#   9]+0.091*[#   4]+0.091*[#   8]
    |psi|^2 = 0.660

 k =  -0.3750000000  0.2453810624  0.0000000000
==== e(   1) =   -12.18357 eV ==== 
     psi = 0.327*[#   2]+0.327*[#   6]+0.074*[#   4]+0.074*[#   8]+0.062*[#   1]
          +0.062*[#  10]+0.031*[#   5]+0.031*[#   9]+0.001*[#   3]+0.001*[#   7]
          
    |psi|^2 = 0.991
==== e(   2) =    -9.70287 eV ==== 
     psi = 0.209*[#   2]+0.209*[#   6]+0.128*[#   1]+0.128*[#  10]+0.091*[#   4]
          +0.091*[#   8]+0.035*[#   3]+0.035*[#   7]+0.031*[#   5]+0.031*[#   9]
          
    |psi|^2 = 0.986
==== e(   3) =    -6.88818 eV ==== 
     psi = 0.187*[#   3]+0.187*[#   7]+0.144*[#   4]+0.144*[#   8]+0.104*[#   1]
          +0.104*[#  10]+0.045*[#   5]+0.045*[#   9]+0.009*[#   2]+0.009*[#   6]
          
    |psi|^2 = 0.977
==== e(   4) =    -6.01445 eV ==== 
     psi = 0.230*[#   1]+0.230*[#  10]+0.211*[#   7]+0.210*[#   3]+0.028*[#   4]
          +0.028*[#   8]+0.015*[#   5]+0.015*[#   9]+0.008*[#   2]+0.008*[#   6]
          
    |psi|^2 = 0.983
==== e(   5) =    -4.72686 eV ==== 
     psi = 0.366*[#   5]+0.366*[#   9]+0.126*[#   4]+0.126*[#   8]+0.002*[#   3]
          +0.002*[#   7]+0.001*[#   2]+0.001*[#   6]
    |psi|^2 = 0.990
==== e(   6) =    -1.11279 eV ==== 
     psi = 0.145*[#   2]+0.145*[#   6]+0.143*[#   4]+0.143*[#   8]+0.107*[#   3]
          +0.107*[#   7]+0.040*[#   5]+0.040*[#   9]+0.005*[#   1]+0.005*[#  10]
          
    |psi|^2 = 0.880
==== e(   7) =     0.57440 eV ==== 
     psi = 0.080*[#   2]+0.080*[#   6]+0.071*[#   1]+0.070*[#  10]+0.068*[#   4]
          +0.069*[#   8]+0.051*[#   3]+0.051*[#   7]+0.026*[#   5]+0.026*[#   9]
          
    |psi|^2 = 0.593
==== e(   8) =     1.31942 eV ==== 
     psi = 0.190*[#   1]+0.190*[#  10]+0.099*[#   3]+0.099*[#   7]+0.065*[#   2]
          +0.066*[#   6]+0.007*[#   4]+0.007*[#   8]+0.007*[#   5]+0.007*[#   9]
          
    |psi|^2 = 0.735
==== e(   9) =     2.78206 eV ==== 
     psi = 0.087*[#   9]+0.087*[#   5]+0.024*[#   4]+0.024*[#   8]+0.023*[#   1]
          +0.023*[#  10]+0.006*[#   3]+0.006*[#   7]+0.002*[#   2]+0.002*[#   6]
          
    |psi|^2 = 0.283
==== e(  10) =     3.02818 eV ==== 
     psi = 0.179*[#   5]+0.179*[#   9]+0.072*[#   8]+0.072*[#   4]+0.003*[#   1]
          +0.003*[#  10]
    |psi|^2 = 0.509

 k =  -0.4000000000  0.2598152425  0.0000000000
==== e(   1) =   -12.02634 eV ==== 
     psi = 0.326*[#   2]+0.326*[#   6]+0.075*[#   4]+0.075*[#   8]+0.064*[#   1]
          +0.064*[#  10]+0.030*[#   5]+0.030*[#   9]
    |psi|^2 = 0.991
==== e(   2) =    -9.86389 eV ==== 
     psi = 0.215*[#   2]+0.215*[#   6]+0.115*[#   1]+0.115*[#  10]+0.103*[#   4]
          +0.103*[#   8]+0.035*[#   5]+0.035*[#   9]+0.025*[#   3]+0.025*[#   7]
          
    |psi|^2 = 0.986
==== e(   3) =    -6.92007 eV ==== 
     psi = 0.192*[#   3]+0.192*[#   7]+0.132*[#   4]+0.132*[#   8]+0.119*[#   1]
          +0.118*[#  10]+0.041*[#   5]+0.041*[#   9]+0.005*[#   2]+0.005*[#   6]
          
    |psi|^2 = 0.977
==== e(   4) =    -6.04337 eV ==== 
     psi = 0.224*[#   1]+0.224*[#  10]+0.214*[#   7]+0.214*[#   3]+0.030*[#   4]
          +0.030*[#   8]+0.015*[#   5]+0.015*[#   9]+0.008*[#   2]+0.008*[#   6]
          
    |psi|^2 = 0.983
==== e(   5) =    -4.77338 eV ==== 
     psi = 0.367*[#   5]+0.367*[#   9]+0.125*[#   4]+0.125*[#   8]+0.002*[#   3]
          +0.002*[#   7]+0.001*[#   2]+0.001*[#   6]
    |psi|^2 = 0.990
==== e(   6) =    -1.13721 eV ==== 
     psi = 0.148*[#   2]+0.148*[#   6]+0.134*[#   4]+0.134*[#   8]+0.112*[#   3]
          +0.112*[#   7]+0.038*[#   5]+0.038*[#   9]+0.004*[#   1]+0.004*[#  10]
          
    |psi|^2 = 0.873
==== e(   7) =     0.46270 eV ==== 
[...]
    |psi|^2 = 0.981
==== e(   4) =    -6.13964 eV ==== 
     psi = 0.222*[#   7]+0.222*[#   3]+0.207*[#   1]+0.207*[#  10]+0.048*[#   5]
          +0.048*[#   9]+0.008*[#   4]+0.008*[#   8]+0.007*[#   2]+0.007*[#   6]
          
    |psi|^2 = 0.984
==== e(   5) =    -5.65173 eV ==== 
     psi = 0.398*[#   4]+0.398*[#   8]+0.040*[#   3]+0.040*[#   7]+0.029*[#   5]
          +0.029*[#   9]+0.016*[#   2]+0.016*[#   6]+0.011*[#   1]+0.011*[#  10]
          
    |psi|^2 = 0.988
==== e(   6) =     0.22680 eV ==== 
     psi = 0.118*[#   5]+0.118*[#   9]+0.107*[#   2]+0.107*[#   6]+0.103*[#   3]
          +0.103*[#   7]+0.062*[#   4]+0.063*[#   8]+0.004*[#   1]+0.004*[#  10]
          
    |psi|^2 = 0.788
==== e(   7) =     0.41762 eV ==== 
     psi = 0.132*[#   9]+0.132*[#   5]+0.068*[#   1]+0.068*[#   2]+0.068*[#   6]
          +0.068*[#  10]+0.037*[#   3]+0.037*[#   7]+0.024*[#   4]+0.024*[#   8]
          
    |psi|^2 = 0.659
==== e(   8) =     1.35119 eV ==== 
     psi = 0.170*[#   1]+0.170*[#  10]+0.092*[#   3]+0.092*[#   7]+0.078*[#   2]
          +0.078*[#   6]+0.016*[#   5]+0.016*[#   9]+0.003*[#   4]+0.003*[#   8]
          
    |psi|^2 = 0.717
==== e(   9) =     2.03592 eV ==== 
     psi = 0.220*[#   4]+0.220*[#   8]+0.042*[#  10]+0.042*[#   1]+0.029*[#   3]
          +0.029*[#   7]+0.023*[#   2]+0.023*[#   6]+0.007*[#   5]+0.007*[#   9]
          
    |psi|^2 = 0.641
==== e(  10) =     4.09177 eV ==== 
     psi = 0.032*[#   1]+0.032*[#  10]+0.008*[#   3]+0.008*[#   7]+0.007*[#   2]
          +0.007*[#   6]
    |psi|^2 = 0.095

 k =   0.0000000000  0.5196304850  0.0000000000
==== e(   1) =   -11.82258 eV ==== 
     psi = 0.326*[#   2]+0.326*[#   6]+0.102*[#   5]+0.102*[#   9]+0.068*[#   1]
          +0.068*[#  10]
    |psi|^2 = 0.992
==== e(   2) =   -10.08545 eV ==== 
     psi = 0.218*[#   2]+0.218*[#   6]+0.159*[#   5]+0.159*[#   9]+0.100*[#   1]
          +0.100*[#  10]+0.016*[#   3]+0.016*[#   7]
    |psi|^2 = 0.986
==== e(   3) =    -6.94005 eV ==== 
     psi = 0.197*[#   3]+0.197*[#   7]+0.155*[#   5]+0.155*[#   9]+0.136*[#   1]
          +0.136*[#  10]+0.001*[#   2]+0.001*[#   6]
    |psi|^2 = 0.978
==== e(   4) =    -6.08040 eV ==== 
     psi = 0.218*[#   7]+0.218*[#   3]+0.217*[#   1]+0.217*[#  10]+0.049*[#   5]
          +0.049*[#   9]+0.008*[#   2]+0.008*[#   6]
    |psi|^2 = 0.983
==== e(   5) =    -4.78442 eV ==== 
     psi = 0.495*[#   4]+0.495*[#   8]
    |psi|^2 = 0.991
==== e(   6) =    -1.20671 eV ==== 
     psi = 0.158*[#   5]+0.158*[#   9]+0.154*[#   2]+0.154*[#   6]+0.118*[#   3]
          +0.118*[#   7]+0.002*[#   1]+0.002*[#  10]
    |psi|^2 = 0.865
==== e(   7) =     0.34046 eV ==== 
     psi = 0.114*[#   5]+0.114*[#   9]+0.089*[#   2]+0.089*[#   6]+0.077*[#   1]
          +0.076*[#  10]+0.043*[#   3]+0.043*[#   7]
    |psi|^2 = 0.644
==== e(   8) =     1.30509 eV ==== 
     psi = 0.178*[#   1]+0.178*[#  10]+0.097*[#   3]+0.097*[#   7]+0.068*[#   2]
          +0.068*[#   6]+0.012*[#   5]+0.012*[#   9]
    |psi|^2 = 0.710
==== e(   9) =     2.99320 eV ==== 
     psi = 0.341*[#   4]+0.341*[#   8]
    |psi|^2 = 0.682
==== e(  10) =     3.39648 eV ==== 
     psi = 0.038*[#   1]+0.038*[#  10]+0.015*[#   3]+0.015*[#   7]+0.004*[#   5]
          +0.004*[#   9]+0.003*[#   2]+0.003*[#   6]
    |psi|^2 = 0.119

 k =  -0.0250000000  0.5340646651  0.0000000000
==== e(   1) =   -11.76484 eV ==== 
     psi = 0.326*[#   2]+0.326*[#   6]+0.100*[#   5]+0.100*[#   9]+0.069*[#   1]
          +0.069*[#  10]
    |psi|^2 = 0.992
==== e(   2) =   -10.14320 eV ==== 
     psi = 0.218*[#   2]+0.218*[#   6]+0.163*[#   5]+0.163*[#   9]+0.097*[#   1]
          +0.097*[#  10]+0.014*[#   3]+0.014*[#   7]
    |psi|^2 = 0.986
==== e(   3) =    -6.93862 eV ==== 
     psi = 0.197*[#   3]+0.197*[#   7]+0.152*[#   5]+0.152*[#   9]+0.140*[#   1]
          +0.140*[#  10]
    |psi|^2 = 0.979
==== e(   4) =    -6.09021 eV ==== 
     psi = 0.219*[#   7]+0.219*[#   3]+0.215*[#   1]+0.215*[#  10]+0.050*[#   5]
          +0.050*[#   9]+0.007*[#   2]+0.007*[#   6]
    |psi|^2 = 0.983
==== e(   5) =    -4.82948 eV ==== 
     psi = 0.490*[#   4]+0.490*[#   8]+0.002*[#   5]+0.002*[#   9]+0.002*[#   3]
          +0.002*[#   7]+0.001*[#   2]+0.001*[#   6]
    |psi|^2 = 0.990
==== e(   6) =    -1.16021 eV ==== 
     psi = 0.154*[#   5]+0.154*[#   9]+0.153*[#   2]+0.153*[#   6]+0.118*[#   3]
          +0.118*[#   7]+0.004*[#   4]+0.004*[#   8]+0.001*[#   1]+0.001*[#  10]
          
    |psi|^2 = 0.861
==== e(   7) =     0.31870 eV ==== 
     psi = 0.117*[#   5]+0.117*[#   9]+0.089*[#   2]+0.089*[#   6]+0.077*[#   1]
          +0.077*[#  10]+0.042*[#   3]+0.042*[#   7]
    |psi|^2 = 0.651
==== e(   8) =     1.30376 eV ==== 
     psi = 0.176*[#   1]+0.176*[#  10]+0.097*[#   3]+0.096*[#   7]+0.069*[#   2]
          +0.069*[#   6]+0.012*[#   5]+0.012*[#   9]
    |psi|^2 = 0.708
==== e(   9) =     2.93475 eV ==== 
     psi = 0.319*[#   4]+0.319*[#   8]+0.005*[#   1]+0.005*[#  10]+0.003*[#   3]
          +0.003*[#   7]+0.001*[#   2]+0.001*[#   6]
    |psi|^2 = 0.659
==== e(  10) =     3.54777 eV ==== 
     psi = 0.036*[#   1]+0.036*[#  10]+0.015*[#   3]+0.015*[#   7]+0.012*[#   4]
          +0.012*[#   8]+0.003*[#   5]+0.003*[#   9]+0.003*[#   2]+0.003*[#   6]
          
    |psi|^2 = 0.137

 k =   0.9500000000 -0.0288683603  0.0000000000
==== e(   1) =   -11.70915 eV ==== 
     psi = 0.326*[#   2]+0.326*[#   6]+0.098*[#   5]+0.098*[#   9]+0.070*[#   1]
          +0.070*[#  10]+0.002*[#   4]+0.002*[#   8]
    |psi|^2 = 0.992
==== e(   2) =   -10.19062 eV ==== 
     psi = 0.219*[#   2]+0.219*[#   6]+0.165*[#   5]+0.165*[#   9]+0.095*[#   1]
          +0.095*[#  10]+0.013*[#   3]+0.013*[#   7]
    |psi|^2 = 0.986
==== e(   3) =    -6.93045 eV ==== 
     psi = 0.196*[#   3]+0.196*[#   7]+0.151*[#   5]+0.151*[#   9]+0.142*[#   1]
          +0.142*[#  10]
    |psi|^2 = 0.979
==== e(   4) =    -6.09977 eV ==== 
     psi = 0.220*[#   7]+0.220*[#   3]+0.213*[#   1]+0.213*[#  10]+0.050*[#   5]
          +0.050*[#   9]+0.007*[#   2]+0.007*[#   6]
    |psi|^2 = 0.983
==== e(   5) =    -4.93528 eV ==== 
     psi = 0.476*[#   4]+0.476*[#   8]+0.007*[#   5]+0.007*[#   9]+0.007*[#   3]
          +0.007*[#   7]+0.005*[#   2]+0.005*[#   6]
    |psi|^2 = 0.990
==== e(   6) =    -1.01612 eV ==== 
     psi = 0.147*[#   2]+0.147*[#   6]+0.147*[#   5]+0.147*[#   9]+0.115*[#   3]
          +0.115*[#   7]+0.016*[#   4]+0.016*[#   8]+0.001*[#   1]+0.001*[#  10]
          
    |psi|^2 = 0.855
==== e(   7) =     0.31215 eV ==== 
     psi = 0.119*[#   5]+0.119*[#   9]+0.088*[#   2]+0.088*[#   6]+0.077*[#   1]
          +0.077*[#  10]+0.041*[#   3]+0.041*[#   7]+0.002*[#   4]+0.002*[#   8]
          
    |psi|^2 = 0.655
==== e(   8) =     1.30647 eV ==== 
     psi = 0.175*[#   1]+0.175*[#  10]+0.096*[#   3]+0.096*[#   7]+0.069*[#   2]
          +0.069*[#   6]+0.013*[#   5]+0.013*[#   9]
    |psi|^2 = 0.707
==== e(   9) =     2.79843 eV ==== 
     psi = 0.293*[#   4]+0.293*[#   8]+0.012*[#   1]+0.012*[#  10]+0.009*[#   3]
          +0.009*[#   7]+0.004*[#   2]+0.004*[#   6]+0.003*[#   5]+0.003*[#   9]
          
    |psi|^2 = 0.641
==== e(  10) =     3.72490 eV ==== 
     psi = 0.032*[#   1]+0.033*[#  10]+0.017*[#   4]+0.017*[#   8]+0.013*[#   3]
          +0.013*[#   7]+0.003*[#   2]+0.003*[#   6]+0.002*[#   5]+0.002*[#   9]
          
    |psi|^2 = 0.135

 k =   0.9250000000 -0.0144341801  0.0000000000
==== e(   1) =   -11.65791 eV ==== 
     psi = 0.325*[#   2]+0.325*[#   6]+0.096*[#   5]+0.096*[#   9]+0.071*[#   1]
          +0.071*[#  10]+0.005*[#   4]+0.005*[#   8]
    |psi|^2 = 0.992
==== e(   2) =   -10.22556 eV ==== 
     psi = 0.221*[#   2]+0.221*[#   6]+0.164*[#   5]+0.164*[#   9]+0.093*[#   1]
          +0.093*[#  10]+0.012*[#   3]+0.012*[#   7]+0.002*[#   4]+0.002*[#   8]
          
    |psi|^2 = 0.986
==== e(   3) =    -6.91633 eV ==== 
     psi = 0.194*[#   3]+0.194*[#   7]+0.152*[#   5]+0.152*[#   9]+0.143*[#   1]
          +0.143*[#  10]+0.001*[#   4]+0.001*[#   8]
    |psi|^2 = 0.979
==== e(   4) =    -6.10867 eV ==== 
     psi = 0.221*[#   7]+0.221*[#   3]+0.211*[#   1]+0.211*[#  10]+0.050*[#   5]
          +0.050*[#   9]+0.007*[#   2]+0.007*[#   6]+0.002*[#   4]+0.002*[#   8]
          
    |psi|^2 = 0.983
==== e(   5) =    -5.08667 eV ==== 
     psi = 0.458*[#   4]+0.458*[#   8]+0.013*[#   3]+0.013*[#   7]+0.013*[#   5]
          +0.013*[#   9]+0.009*[#   2]+0.009*[#   6]+0.002*[#   1]+0.002*[#  10]
          
    |psi|^2 = 0.990
==== e(   6) =    -0.78895 eV ==== 
     psi = 0.140*[#   5]+0.140*[#   9]+0.139*[#   2]+0.139*[#   6]+0.111*[#   3]
          +0.111*[#   7]+0.030*[#   4]+0.030*[#   8]+0.001*[#   1]+0.001*[#  10]
          
    |psi|^2 = 0.844
==== e(   7) =     0.32028 eV ==== 
     psi = 0.122*[#   5]+0.122*[#   9]+0.085*[#   2]+0.085*[#   6]+0.076*[#   1]
          +0.076*[#  10]+0.040*[#   3]+0.040*[#   7]+0.006*[#   4]+0.006*[#   8]
          
    |psi|^2 = 0.658
==== e(   8) =     1.31370 eV ==== 
     psi = 0.174*[#   1]+0.174*[#  10]+0.096*[#   3]+0.096*[#   7]+0.070*[#   2]
          +0.070*[#   6]+0.013*[#   5]+0.013*[#   9]
    |psi|^2 = 0.707
==== e(   9) =     2.62144 eV ==== 
     psi = 0.271*[#   4]+0.271*[#   8]+0.019*[#   1]+0.019*[#  10]+0.014*[#   3]
          +0.014*[#   7]+0.007*[#   2]+0.007*[#   6]+0.004*[#   5]+0.004*[#   9]
          
    |psi|^2 = 0.633
==== e(  10) =     3.88845 eV ==== 
     psi = 0.032*[#   1]+0.032*[#  10]+0.010*[#   3]+0.010*[#   7]+0.009*[#   4]
          +0.009*[#   8]+0.004*[#   2]+0.004*[#   6]+0.002*[#   5]+0.002*[#   9]
          
    |psi|^2 = 0.113

 k =   0.9000000000  0.0000000000  0.0000000000
==== e(   1) =   -11.61327 eV ==== 
     psi = 0.323*[#   2]+0.323*[#   6]+0.093*[#   5]+0.093*[#   9]+0.071*[#   1]
          +0.071*[#  10]+0.009*[#   4]+0.009*[#   8]
    |psi|^2 = 0.992
==== e(   2) =   -10.24672 eV ==== 
     psi = 0.225*[#   2]+0.225*[#   6]+0.160*[#   5]+0.160*[#   9]+0.093*[#   1]
          +0.093*[#  10]+0.011*[#   3]+0.011*[#   7]+0.003*[#   4]+0.003*[#   8]
          
    |psi|^2 = 0.986
==== e(   3) =    -6.89653 eV ==== 
     psi = 0.190*[#   3]+0.190*[#   7]+0.155*[#   5]+0.155*[#   9]+0.142*[#   1]
          +0.142*[#  10]+0.003*[#   4]+0.003*[#   8]
    |psi|^2 = 0.980
==== e(   4) =    -6.11715 eV ==== 
     psi = 0.222*[#   7]+0.221*[#   3]+0.210*[#   1]+0.210*[#  10]+0.050*[#   5]
          +0.050*[#   9]+0.007*[#   2]+0.007*[#   6]+0.003*[#   4]+0.003*[#   8]
          
    |psi|^2 = 0.983
==== e(   5) =    -5.26572 eV ==== 
     psi = 0.438*[#   4]+0.438*[#   8]+0.021*[#   3]+0.021*[#   7]+0.019*[#   5]
          +0.019*[#   9]+0.012*[#   2]+0.012*[#   6]+0.004*[#   1]+0.004*[#  10]
          
    |psi|^2 = 0.989
==== e(   6) =    -0.49609 eV ==== 
     psi = 0.132*[#   5]+0.132*[#   9]+0.130*[#   2]+0.130*[#   6]+0.107*[#   3]
          +0.107*[#   7]+0.044*[#   4]+0.044*[#   8]+0.002*[#   1]+0.002*[#  10]
          
    |psi|^2 = 0.830
==== e(   7) =     0.34324 eV ==== 
     psi = 0.125*[#   5]+0.125*[#   9]+0.081*[#   2]+0.081*[#   6]+0.075*[#   1]
          +0.074*[#  10]+0.039*[#   3]+0.039*[#   7]+0.010*[#   4]+0.010*[#   8]
          
    |psi|^2 = 0.659
==== e(   8) =     1.32453 eV ==== 
     psi = 0.173*[#   1]+0.173*[#  10]+0.095*[#   3]+0.095*[#   7]+0.072*[#   2]
          +0.072*[#   6]+0.013*[#   5]+0.013*[#   9]+0.001*[#   4]+0.001*[#   8]
          
    |psi|^2 = 0.710
==== e(   9) =     2.42622 eV ==== 
     psi = 0.253*[#   4]+0.253*[#   8]+0.026*[#   1]+0.026*[#  10]+0.019*[#   3]
          +0.019*[#   7]+0.011*[#   2]+0.011*[#   6]+0.005*[#   5]+0.005*[#   9]
          
    |psi|^2 = 0.631
==== e(  10) =     3.98333 eV ==== 
     psi = 0.033*[#  10]+0.033*[#   1]+0.008*[#   3]+0.008*[#   7]+0.006*[#   2]
          +0.006*[#   6]+0.001*[#   5]+0.001*[#   9]
    |psi|^2 = 0.096

 k =   0.0000000000  0.5484988453  0.0000000000
==== e(   1) =   -11.72940 eV ==== 
     psi = 0.328*[#   2]+0.328*[#   6]+0.099*[#   5]+0.099*[#   9]+0.070*[#   1]
          +0.070*[#  10]
    |psi|^2 = 0.992
==== e(   2) =   -10.18531 eV ==== 
     psi = 0.217*[#   2]+0.217*[#   6]+0.168*[#   5]+0.168*[#   9]+0.094*[#   1]
          +0.094*[#  10]+0.013*[#   3]+0.013*[#   7]
    |psi|^2 = 0.985
==== e(   3) =    -6.94241 eV ==== 
     psi = 0.198*[#   3]+0.197*[#   7]+0.149*[#   5]+0.149*[#   9]+0.143*[#   1]
          +0.143*[#  10]
    |psi|^2 = 0.979
==== e(   4) =    -6.09562 eV ==== 
     psi = 0.220*[#   7]+0.220*[#   3]+0.214*[#   1]+0.214*[#  10]+0.050*[#   5]
          +0.050*[#   9]+0.007*[#   2]+0.007*[#   6]
    |psi|^2 = 0.983
==== e(   5) =    -4.80199 eV ==== 
     psi = 0.495*[#   4]+0.495*[#   8]
    |psi|^2 = 0.991
==== e(   6) =    -1.21412 eV ==== 
     psi = 0.156*[#   2]+0.156*[#   6]+0.154*[#   5]+0.154*[#   9]+0.120*[#   3]
          +0.120*[#   7]
    |psi|^2 = 0.861
==== e(   7) =     0.29556 eV ==== 
     psi = 0.118*[#   5]+0.118*[#   9]+0.090*[#   2]+0.090*[#   6]+0.078*[#   1]
          +0.078*[#  10]+0.041*[#   3]+0.041*[#   7]
    |psi|^2 = 0.655
==== e(   8) =     1.30034 eV ==== 
     psi = 0.175*[#   1]+0.175*[#  10]+0.096*[#   3]+0.096*[#   7]+0.069*[#   2]
          +0.069*[#   6]+0.012*[#   5]+0.012*[#   9]
    |psi|^2 = 0.705
==== e(   9) =     2.99157 eV ==== 
     psi = 0.337*[#   4]+0.337*[#   8]
    |psi|^2 = 0.673
==== e(  10) =     3.64248 eV ==== 
     psi = 0.041*[#   1]+0.041*[#  10]+0.020*[#   3]+0.020*[#   7]+0.004*[#   5]
          +0.004*[#   9]+0.003*[#   2]+0.003*[#   6]
    |psi|^2 = 0.137

 k =   0.9750000000 -0.0144341801  0.0000000000
==== e(   1) =   -11.69870 eV ==== 
     psi = 0.328*[#   2]+0.328*[#   6]+0.097*[#   5]+0.097*[#   9]+0.070*[#   1]
          +0.070*[#  10]
    |psi|^2 = 0.992
==== e(   2) =   -10.21403 eV ==== 
     psi = 0.217*[#   2]+0.217*[#   6]+0.170*[#   5]+0.170*[#   9]+0.093*[#   1]
          +0.093*[#  10]+0.012*[#   3]+0.012*[#   7]
    |psi|^2 = 0.985
==== e(   3) =    -6.93966 eV ==== 
     psi = 0.197*[#   3]+0.197*[#   7]+0.148*[#   5]+0.148*[#   9]+0.144*[#   1]
          +0.144*[#  10]
    |psi|^2 = 0.979
==== e(   4) =    -6.10056 eV ==== 
     psi = 0.221*[#   7]+0.221*[#   3]+0.213*[#   1]+0.213*[#  10]+0.051*[#   5]
          +0.051*[#   9]+0.007*[#   2]+0.007*[#   6]
    |psi|^2 = 0.983
==== e(   5) =    -4.84131 eV ==== 
     psi = 0.490*[#   4]+0.490*[#   8]+0.002*[#   3]+0.002*[#   5]+0.002*[#   7]
          +0.002*[#   9]+0.001*[#   2]+0.001*[#   6]
    |psi|^2 = 0.990
==== e(   6) =    -1.16477 eV ==== 
     psi = 0.154*[#   2]+0.154*[#   6]+0.151*[#   5]+0.151*[#   9]+0.119*[#   3]
          +0.119*[#   7]+0.004*[#   4]+0.004*[#   8]
    |psi|^2 = 0.859
==== e(   7) =     0.28826 eV ==== 
     psi = 0.120*[#   5]+0.120*[#   9]+0.090*[#   2]+0.090*[#   6]+0.078*[#   1]
          +0.078*[#  10]+0.041*[#   3]+0.041*[#   7]
    |psi|^2 = 0.658
==== e(   8) =     1.30076 eV ==== 
     psi = 0.175*[#   1]+0.175*[#  10]+0.096*[#   3]+0.096*[#   7]+0.069*[#   2]
          +0.069*[#   6]+0.012*[#   5]+0.012*[#   9]
    |psi|^2 = 0.704
==== e(   9) =     2.93680 eV ==== 
     psi = 0.321*[#   4]+0.321*[#   8]+0.004*[#   1]+0.004*[#  10]+0.003*[#   3]
          +0.003*[#   7]+0.001*[#   2]+0.001*[#   6]
    |psi|^2 = 0.660
==== e(  10) =     3.79236 eV ==== 
     psi = 0.039*[#   1]+0.039*[#  10]+0.019*[#   3]+0.019*[#   7]+0.006*[#   4]
          +0.006*[#   8]+0.004*[#   2]+0.004*[#   6]+0.003*[#   5]+0.003*[#   9]
          
    |psi|^2 = 0.141

 k =   0.9500000000  0.0000000000  0.0000000000
==== e(   1) =   -11.67455 eV ==== 
     psi = 0.327*[#   2]+0.327*[#   6]+0.096*[#   5]+0.096*[#   9]+0.071*[#   1]
          +0.071*[#  10]+0.002*[#   4]+0.002*[#   8]
    |psi|^2 = 0.992
==== e(   2) =   -10.22758 eV ==== 
     psi = 0.219*[#   2]+0.219*[#   6]+0.169*[#   5]+0.169*[#   9]+0.093*[#   1]
          +0.093*[#  10]+0.012*[#   3]+0.012*[#   7]
    |psi|^2 = 0.985
==== e(   3) =    -6.93099 eV ==== 
     psi = 0.196*[#   3]+0.196*[#   7]+0.149*[#   5]+0.149*[#   9]+0.144*[#   1]
          +0.144*[#  10]
    |psi|^2 = 0.979
==== e(   4) =    -6.10484 eV ==== 
     psi = 0.221*[#   7]+0.221*[#   3]+0.212*[#   1]+0.212*[#  10]+0.050*[#   5]
          +0.050*[#   9]+0.007*[#   2]+0.007*[#   6]
    |psi|^2 = 0.983
==== e(   5) =    -4.94136 eV ==== 
     psi = 0.476*[#   4]+0.476*[#   8]+0.007*[#   5]+0.007*[#   9]+0.007*[#   3]
          +0.007*[#   7]+0.005*[#   2]+0.005*[#   6]
    |psi|^2 = 0.990
==== e(   6) =    -1.01796 eV ==== 
     psi = 0.148*[#   2]+0.148*[#   6]+0.146*[#   5]+0.146*[#   9]+0.116*[#   3]
          +0.116*[#   7]+0.016*[#   4]+0.016*[#   8]
    |psi|^2 = 0.853
==== e(   7) =     0.29637 eV ==== 
     psi = 0.121*[#   5]+0.121*[#   9]+0.088*[#   2]+0.088*[#   6]+0.077*[#   1]
          +0.077*[#  10]+0.040*[#   3]+0.040*[#   7]+0.002*[#   4]+0.002*[#   8]
          
    |psi|^2 = 0.659
==== e(   8) =     1.30548 eV ==== 
     psi = 0.174*[#   1]+0.174*[#  10]+0.096*[#   3]+0.096*[#   7]+0.069*[#   2]
          +0.070*[#   6]+0.013*[#   5]+0.013*[#   9]
    |psi|^2 = 0.705
==== e(   9) =     2.80060 eV ==== 
     psi = 0.295*[#   4]+0.295*[#   8]+0.011*[#   1]+0.011*[#  10]+0.009*[#   3]
          +0.009*[#   7]+0.004*[#   2]+0.004*[#   6]+0.002*[#   5]+0.002*[#   9]
          
    |psi|^2 = 0.642
==== e(  10) =     3.91650 eV ==== 
     psi = 0.033*[#   1]+0.033*[#  10]+0.008*[#   3]+0.008*[#   7]+0.005*[#   2]
          +0.005*[#   6]+0.001*[#   5]+0.002*[#   9]
    |psi|^2 = 0.097

 k =   0.0000000000 -0.5773672055  0.0000000000
==== e(   1) =   -11.69505 eV ==== 
     psi = 0.328*[#   2]+0.328*[#   6]+0.097*[#   5]+0.097*[#   9]+0.070*[#   1]
          +0.070*[#  10]
    |psi|^2 = 0.992
==== e(   2) =   -10.22212 eV ==== 
     psi = 0.217*[#   2]+0.217*[#   6]+0.172*[#   5]+0.172*[#   9]+0.092*[#   1]
          +0.092*[#  10]+0.012*[#   3]+0.012*[#   7]
    |psi|^2 = 0.985
==== e(   3) =    -6.94267 eV ==== 
     psi = 0.198*[#   3]+0.198*[#   7]+0.147*[#   5]+0.147*[#   9]+0.145*[#   1]
          +0.145*[#  10]
    |psi|^2 = 0.979
==== e(   4) =    -6.10097 eV ==== 
     psi = 0.221*[#   7]+0.221*[#   3]+0.212*[#   1]+0.212*[#  10]+0.051*[#   5]
          +0.051*[#   9]+0.007*[#   2]+0.007*[#   6]
    |psi|^2 = 0.983
==== e(   5) =    -4.80786 eV ==== 
     psi = 0.495*[#   4]+0.495*[#   8]
    |psi|^2 = 0.991
==== e(   6) =    -1.21647 eV ==== 
     psi = 0.156*[#   2]+0.156*[#   6]+0.152*[#   5]+0.152*[#   9]+0.121*[#   3]
          +0.121*[#   7]
    |psi|^2 = 0.860
==== e(   7) =     0.28043 eV ==== 
     psi = 0.120*[#   5]+0.120*[#   9]+0.091*[#   2]+0.091*[#   6]+0.078*[#   1]
          +0.078*[#  10]+0.041*[#   3]+0.041*[#   7]
    |psi|^2 = 0.659
==== e(   8) =     1.29860 eV ==== 
     psi = 0.175*[#   1]+0.175*[#  10]+0.096*[#   3]+0.096*[#   7]+0.069*[#   2]
          +0.069*[#   6]+0.012*[#   5]+0.012*[#   9]
    |psi|^2 = 0.704
==== e(   9) =     2.99079 eV ==== 
     psi = 0.335*[#   4]+0.335*[#   8]
    |psi|^2 = 0.671
==== e(  10) =     3.89478 eV ==== 
     psi = 0.060*[#   1]+0.023*[#   3]+0.011*[#  10]+0.007*[#   2]+0.004*[#   9]
          +0.003*[#   6]+0.001*[#   7]
    |psi|^2 = 0.110

Lowdin Charges: 

     Atom #   1: total charge =   1.0486, s =  1.0486, 
     Atom #   1: total charge =   1.0486, p =  0.0000, pz=  0.0000, px=  0.0000, py=  0.0000, 
     Atom #   2: total charge =   3.8726, s =  1.1380, 
     Atom #   2: total charge =   3.8726, p =  2.7346, pz=  0.8957, px=  0.9194, py=  0.9195, 
     Atom #   3: total charge =   3.8724, s =  1.1379, 
     Atom #   3: total charge =   3.8724, p =  2.7345, pz=  0.8958, px=  0.9193, py=  0.9194, 
     Atom #   4: total charge =   1.0485, s =  1.0485, 
     Atom #   4: total charge =   1.0485, p =  0.0000, pz=  0.0000, px=  0.0000, py=  0.0000, 
     Spilling Parameter:   0.0158
 
     PROJWFC      :      9.53s CPU     20.57s WALL

 
   This run was terminated on:  22:11:52  31Mar2021            

=------------------------------------------------------------------------------=
   JOB DONE.
=------------------------------------------------------------------------------=
