
     Program PROJWFC v.6.6 starts on 31Mar2021 at 23:13:43 

     This program is part of the open-source Quantum ESPRESSO suite
     for quantum simulation of materials; please cite
         "P. Giannozzi et al., J. Phys.:Condens. Matter 21 395502 (2009);
         "P. Giannozzi et al., J. Phys.:Condens. Matter 29 465901 (2017);
          URL http://www.quantum-espresso.org", 
     in publications or presentations arising from this work. More details at
     http://www.quantum-espresso.org/quote

     Parallel version (MPI), running on     1 processors

     MPI processes distributed on     1 nodes
     Fft bands division:     nmany     =       1

     Reading xml data from directory:

     /home/jesus/Documentos/Nanociencia_DFT/silicano_con_spin.save/
     file H.pbe-kjpaw_psl.1.0.0.UPF: wavefunction(s)  1S renormalized

     IMPORTANT: XC functional enforced from input :
     Exchange-correlation= PBE
                           (   1   4   3   4   0   0   0)
     Any further DFT definition will be discarded
     Please, verify this is what you really want

 
     G-vector sticks info
     --------------------
     sticks:   dense  smooth     PW     G-vecs:    dense   smooth      PW
     Sum         769     517    163                91447    49847    9159
 

     Gaussian broadening (read from input): ngauss,degauss=   1    0.010000


     Calling projwave .... 
 
  Problem Sizes 
  natomwfc =           10
  nbnd     =           10
  nkstot   =          842
  npwx     =         6271
  nkb      =           40
 

     Atomic states used for projection
     (read from pseudopotential files):

     state #   1: atom   1 (H  ), wfc  1 (l=0 m= 1)
     state #   2: atom   2 (Si ), wfc  1 (l=0 m= 1)
     state #   3: atom   2 (Si ), wfc  2 (l=1 m= 1)
     state #   4: atom   2 (Si ), wfc  2 (l=1 m= 2)
     state #   5: atom   2 (Si ), wfc  2 (l=1 m= 3)
     state #   6: atom   3 (Si ), wfc  1 (l=0 m= 1)
     state #   7: atom   3 (Si ), wfc  2 (l=1 m= 1)
     state #   8: atom   3 (Si ), wfc  2 (l=1 m= 2)
     state #   9: atom   3 (Si ), wfc  2 (l=1 m= 3)
     state #  10: atom   4 (H  ), wfc  1 (l=0 m= 1)

 k =   0.0000000000  0.0000000000  0.0000000000
==== e(   1) =   -13.68123 eV ==== 
     psi = 0.419*[#   2]+0.419*[#   6]+0.064*[#   1]+0.064*[#  10]+0.013*[#   3]
          +0.013*[#   7]
    |psi|^2 = 0.991
==== e(   2) =    -9.13753 eV ==== 
     psi = 0.207*[#   7]+0.207*[#   3]+0.188*[#  10]+0.188*[#   1]+0.084*[#   2]
          +0.084*[#   6]
    |psi|^2 = 0.959
==== e(   3) =    -5.88365 eV ==== 
     psi = 0.275*[#   1]+0.275*[#  10]+0.194*[#   3]+0.194*[#   7]+0.017*[#   2]
          +0.017*[#   6]
    |psi|^2 = 0.973
==== e(   4) =    -3.41427 eV ==== 
     psi = 0.489*[#   5]+0.489*[#   9]
    |psi|^2 = 0.978
==== e(   5) =    -3.40613 eV ==== 
     psi = 0.489*[#   4]+0.489*[#   8]
    |psi|^2 = 0.978
==== e(   6) =    -1.10413 eV ==== 
     psi = 0.242*[#   3]+0.242*[#   7]+0.189*[#   2]+0.189*[#   6]+0.051*[#   1]
          +0.051*[#  10]
    |psi|^2 = 0.964
==== e(   7) =     0.50534 eV ==== 
     psi = 0.451*[#   4]+0.451*[#   8]
    |psi|^2 = 0.902
==== e(   8) =     0.51437 eV ==== 
     psi = 0.451*[#   5]+0.451*[#   9]
    |psi|^2 = 0.902
==== e(   9) =     0.76062 eV ==== 
     psi = 0.130*[#   1]+0.130*[#  10]+0.080*[#   2]+0.080*[#   6]+0.003*[#   3]
          +0.003*[#   7]
    |psi|^2 = 0.425
==== e(  10) =     1.18841 eV ==== 
     psi = 0.020*[#  10]+0.020*[#   1]+0.011*[#   3]+0.011*[#   7]+0.002*[#   2]
          +0.002*[#   6]
    |psi|^2 = 0.067

 k =  -0.0250000000  0.0144341801  0.0000000000
==== e(   1) =   -13.67444 eV ==== 
     psi = 0.418*[#   2]+0.418*[#   6]+0.063*[#   1]+0.063*[#  10]+0.013*[#   3]
          +0.013*[#   7]
    |psi|^2 = 0.991
==== e(   2) =    -9.13564 eV ==== 
     psi = 0.207*[#   7]+0.206*[#   3]+0.189*[#  10]+0.188*[#   1]+0.085*[#   2]
          +0.085*[#   6]
    |psi|^2 = 0.959
==== e(   3) =    -5.88338 eV ==== 
     psi = 0.275*[#   1]+0.275*[#  10]+0.194*[#   3]+0.194*[#   7]+0.017*[#   2]
          +0.017*[#   6]
    |psi|^2 = 0.973
==== e(   4) =    -3.47796 eV ==== 
     psi = 0.329*[#   4]+0.329*[#   8]+0.148*[#   5]+0.148*[#   9]+0.007*[#   2]
          +0.007*[#   6]+0.005*[#   3]+0.005*[#   7]
    |psi|^2 = 0.978
==== e(   5) =    -3.42640 eV ==== 
     psi = 0.338*[#   5]+0.338*[#   9]+0.151*[#   4]+0.151*[#   8]
    |psi|^2 = 0.978
==== e(   6) =    -1.04583 eV ==== 
     psi = 0.238*[#   3]+0.238*[#   7]+0.180*[#   2]+0.180*[#   6]+0.052*[#   1]
          +0.052*[#  10]+0.008*[#   4]+0.008*[#   8]+0.003*[#   5]+0.003*[#   9]
          
    |psi|^2 = 0.963
==== e(   7) =     0.49725 eV ==== 
     psi = 0.370*[#   4]+0.370*[#   8]+0.078*[#   5]+0.078*[#   9]+0.002*[#   2]
          +0.002*[#   6]
    |psi|^2 = 0.899
==== e(   8) =     0.53904 eV ==== 
     psi = 0.372*[#   5]+0.372*[#   9]+0.079*[#   4]+0.079*[#   8]
    |psi|^2 = 0.901
==== e(   9) =     0.76988 eV ==== 
     psi = 0.129*[#   1]+0.129*[#  10]+0.081*[#   2]+0.081*[#   6]+0.002*[#   3]
          +0.002*[#   7]
    |psi|^2 = 0.425
==== e(  10) =     1.19824 eV ==== 
     psi = 0.020*[#  10]+0.020*[#   1]+0.012*[#   3]+0.012*[#   7]+0.002*[#   2]
          +0.002*[#   6]
    |psi|^2 = 0.070

 k =  -0.0500000000  0.0288683603  0.0000000000
==== e(   1) =   -13.65410 eV ==== 
     psi = 0.415*[#   2]+0.415*[#   6]+0.063*[#   1]+0.063*[#  10]+0.012*[#   3]
          +0.012*[#   7]+0.004*[#   4]+0.004*[#   8]+0.001*[#   5]+0.001*[#   9]
          
    |psi|^2 = 0.991
==== e(   2) =    -9.13018 eV ==== 
     psi = 0.205*[#   7]+0.205*[#   3]+0.189*[#  10]+0.189*[#   1]+0.086*[#   2]
          +0.086*[#   6]
    |psi|^2 = 0.960
==== e(   3) =    -5.88290 eV ==== 
     psi = 0.275*[#   1]+0.275*[#  10]+0.194*[#   3]+0.194*[#   7]+0.017*[#   2]
          +0.017*[#   6]
    |psi|^2 = 0.974
==== e(   4) =    -3.66525 eV ==== 
     psi = 0.331*[#   4]+0.331*[#   8]+0.119*[#   5]+0.119*[#   9]+0.022*[#   2]
          +0.022*[#   6]+0.018*[#   3]+0.018*[#   7]
    |psi|^2 = 0.979
==== e(   5) =    -3.46847 eV ==== 
     psi = 0.360*[#   5]+0.360*[#   9]+0.129*[#   4]+0.129*[#   8]
    |psi|^2 = 0.979
==== e(   6) =    -0.89722 eV ==== 
     psi = 0.228*[#   7]+0.228*[#   3]+0.160*[#   2]+0.160*[#   6]+0.055*[#   1]
          +0.055*[#  10]+0.028*[#   4]+0.028*[#   8]+0.009*[#   5]+0.009*[#   9]
          
    |psi|^2 = 0.959
==== e(   7) =     0.47418 eV ==== 
     psi = 0.336*[#   4]+0.336*[#   8]+0.099*[#   5]+0.099*[#   9]+0.006*[#   2]
          +0.006*[#   6]+0.003*[#   1]+0.003*[#  10]+0.001*[#   3]+0.001*[#   7]
          
    |psi|^2 = 0.890
==== e(   8) =     0.61699 eV ==== 
     psi = 0.347*[#   5]+0.347*[#   9]+0.103*[#   4]+0.103*[#   8]
    |psi|^2 = 0.900
==== e(   9) =     0.79922 eV ==== 
     psi = 0.125*[#   1]+0.124*[#  10]+0.083*[#   2]+0.083*[#   6]+0.003*[#   4]
          +0.003*[#   8]+0.002*[#   3]+0.002*[#   7]
    |psi|^2 = 0.427
==== e(  10) =     1.22621 eV ==== 
     psi = 0.019*[#  10]+0.019*[#   1]+0.012*[#   3]+0.012*[#   7]+0.003*[#   4]
          +0.003*[#   8]+0.002*[#   6]+0.002*[#   2]+0.001*[#   5]+0.001*[#   9]
          
    |psi|^2 = 0.075

 k =  -0.0750000000  0.0433025404  0.0000000000
==== e(   1) =   -13.62026 eV ==== 
     psi = 0.410*[#   2]+0.411*[#   6]+0.062*[#   1]+0.062*[#  10]+0.012*[#   3]
          +0.012*[#   7]+0.008*[#   4]+0.008*[#   8]+0.003*[#   5]+0.003*[#   9]
          
    |psi|^2 = 0.991
==== e(   2) =    -9.12164 eV ==== 
     psi = 0.202*[#   7]+0.202*[#   3]+0.190*[#  10]+0.190*[#   1]+0.088*[#   2]
          +0.088*[#   6]
    |psi|^2 = 0.961
==== e(   3) =    -5.88241 eV ==== 
     psi = 0.275*[#   1]+0.275*[#  10]+0.194*[#   3]+0.193*[#   7]+0.016*[#   2]
          +0.016*[#   6]+0.002*[#   4]+0.002*[#   8]
    |psi|^2 = 0.974
==== e(   4) =    -3.92885 eV ==== 
     psi = 0.313*[#   4]+0.313*[#   8]+0.109*[#   5]+0.109*[#   9]+0.037*[#   2]
          +0.037*[#   6]+0.031*[#   3]+0.031*[#   7]
    |psi|^2 = 0.981
==== e(   5) =    -3.53429 eV ==== 
     psi = 0.364*[#   5]+0.364*[#   9]+0.125*[#   4]+0.125*[#   8]
    |psi|^2 = 0.980
==== e(   6) =    -0.71695 eV ==== 
     psi = 0.214*[#   3]+0.214*[#   7]+0.135*[#   2]+0.135*[#   6]+0.058*[#   1]
          +0.058*[#  10]+0.052*[#   4]+0.052*[#   8]+0.017*[#   5]+0.017*[#   9]
          
    |psi|^2 = 0.954
==== e(   7) =     0.45770 eV ==== 
     psi = 0.308*[#   4]+0.308*[#   8]+0.097*[#   5]+0.097*[#   9]+0.013*[#   1]
          +0.013*[#  10]+0.012*[#   2]+0.012*[#   6]+0.008*[#   3]+0.008*[#   7]
          
    |psi|^2 = 0.876
==== e(   8) =     0.74270 eV ==== 
     psi = 0.341*[#   5]+0.341*[#   9]+0.108*[#   4]+0.108*[#   8]
    |psi|^2 = 0.899
==== e(   9) =     0.85246 eV ==== 
     psi = 0.113*[#   1]+0.113*[#  10]+0.087*[#   2]+0.087*[#   6]+0.010*[#   4]
          +0.010*[#   8]+0.003*[#   5]+0.003*[#   9]
    |psi|^2 = 0.428
==== e(  10) =     1.26982 eV ==== 
     psi = 0.019*[#  10]+0.019*[#   1]+0.013*[#   3]+0.013*[#   7]+0.006*[#   4]
          +0.006*[#   8]+0.002*[#   5]+0.002*[#   9]+0.001*[#   2]+0.001*[#   6]
          
    |psi|^2 = 0.081

 k =  -0.1000000000  0.0577367206  0.0000000000
==== e(   1) =   -13.57301 eV ==== 
     psi = 0.404*[#   2]+0.404*[#   6]+0.061*[#   1]+0.062*[#  10]+0.014*[#   4]
          +0.014*[#   8]+0.011*[#   3]+0.011*[#   7]+0.005*[#   5]+0.005*[#   9]
          
    |psi|^2 = 0.991
==== e(   2) =    -9.11089 eV ==== 
     psi = 0.198*[#   7]+0.198*[#   3]+0.191*[#  10]+0.191*[#   1]+0.091*[#   2]
          +0.091*[#   6]+0.001*[#   4]+0.001*[#   8]
    |psi|^2 = 0.962
==== e(   3) =    -5.88236 eV ==== 
     psi = 0.275*[#   1]+0.275*[#  10]+0.193*[#   3]+0.193*[#   7]+0.015*[#   2]
          +0.015*[#   6]+0.003*[#   4]+0.003*[#   8]+0.001*[#   5]+0.001*[#   9]
          
    |psi|^2 = 0.975
==== e(   4) =    -4.23387 eV ==== 
     psi = 0.297*[#   4]+0.297*[#   8]+0.101*[#   5]+0.101*[#   9]+0.050*[#   2]
          +0.050*[#   6]+0.042*[#   3]+0.042*[#   7]
    |psi|^2 = 0.982
==== e(   5) =    -3.61904 eV ==== 
     psi = 0.366*[#   5]+0.366*[#   9]+0.124*[#   4]+0.124*[#   8]
    |psi|^2 = 0.981
==== e(   6) =    -0.56964 eV ==== 
     psi = 0.192*[#   3]+0.192*[#   7]+0.112*[#   2]+0.112*[#   6]+0.085*[#   4]
          +0.085*[#   8]+0.057*[#   1]+0.057*[#  10]+0.028*[#   5]+0.028*[#   9]
          
    |psi|^2 = 0.947
==== e(   7) =     0.47839 eV ==== 
     psi = 0.263*[#   4]+0.263*[#   8]+0.085*[#   5]+0.085*[#   9]+0.037*[#   1]
          +0.037*[#  10]+0.026*[#   3]+0.026*[#   7]+0.017*[#   2]+0.017*[#   6]
          
    |psi|^2 = 0.856
==== e(   8) =     0.91009 eV ==== 
     psi = 0.338*[#   5]+0.338*[#   9]+0.111*[#   4]+0.111*[#   8]
    |psi|^2 = 0.897
==== e(   9) =     0.93514 eV ==== 
     psi = 0.094*[#   1]+0.094*[#  10]+0.093*[#   2]+0.093*[#   6]+0.021*[#   4]
          +0.021*[#   8]+0.008*[#   5]+0.008*[#   9]
    |psi|^2 = 0.432
==== e(  10) =     1.32755 eV ==== 
     psi = 0.019*[#  10]+0.019*[#   1]+0.015*[#   3]+0.015*[#   7]+0.008*[#   4]
          +0.008*[#   8]+0.003*[#   5]+0.003*[#   9]+0.001*[#   2]+0.001*[#   6]
          
    |psi|^2 = 0.093

 k =  -0.1250000000  0.0721709007  0.0000000000
==== e(   1) =   -13.51249 eV ==== 
     psi = 0.397*[#   2]+0.397*[#   6]+0.061*[#   1]+0.061*[#  10]+0.021*[#   4]
          +0.021*[#   8]+0.011*[#   3]+0.011*[#   7]+0.007*[#   5]+0.007*[#   9]
          
    |psi|^2 = 0.991
==== e(   2) =    -9.09935 eV ==== 
     psi = 0.192*[#  10]+0.192*[#   1]+0.192*[#   7]+0.192*[#   3]+0.095*[#   2]
          +0.095*[#   6]+0.002*[#   4]+0.002*[#   8]
    |psi|^2 = 0.963
==== e(   3) =    -5.88363 eV ==== 
     psi = 0.275*[#   1]+0.275*[#  10]+0.192*[#   3]+0.192*[#   7]+0.013*[#   2]
          +0.013*[#   6]+0.005*[#   4]+0.005*[#   8]+0.002*[#   5]+0.002*[#   9]
          
    |psi|^2 = 0.976
==== e(   4) =    -4.55755 eV ==== 
     psi = 0.282*[#   4]+0.282*[#   8]+0.096*[#   5]+0.096*[#   9]+0.060*[#   2]
          +0.060*[#   6]+0.053*[#   3]+0.053*[#   7]
    |psi|^2 = 0.982
==== e(   5) =    -3.71740 eV ==== 
     psi = 0.367*[#   5]+0.367*[#   9]+0.124*[#   4]+0.124*[#   8]
    |psi|^2 = 0.982
==== e(   6) =    -0.50219 eV ==== 
     psi = 0.159*[#   7]+0.159*[#   3]+0.125*[#   4]+0.125*[#   8]+0.095*[#   2]
          +0.095*[#   6]+0.048*[#   1]+0.048*[#  10]+0.041*[#   5]+0.041*[#   9]
          
    |psi|^2 = 0.938
==== e(   7) =     0.55526 eV ==== 
     psi = 0.197*[#   4]+0.197*[#   8]+0.079*[#   1]+0.079*[#  10]+0.064*[#   5]
          +0.064*[#   9]+0.053*[#   3]+0.053*[#   7]+0.018*[#   2]+0.018*[#   6]
          
    |psi|^2 = 0.824
==== e(   8) =     1.05276 eV ==== 
     psi = 0.097*[#   2]+0.097*[#   6]+0.067*[#   1]+0.067*[#  10]+0.039*[#   4]
          +0.038*[#   8]+0.012*[#   5]+0.012*[#   9]+0.003*[#   7]+0.003*[#   3]
          
    |psi|^2 = 0.436
==== e(   9) =     1.11232 eV ==== 
     psi = 0.338*[#   5]+0.338*[#   9]+0.110*[#   4]+0.110*[#   8]
    |psi|^2 = 0.896
==== e(  10) =     1.40139 eV ==== 
     psi = 0.019*[#   3]+0.019*[#   7]+0.019*[#  10]+0.018*[#   1]+0.013*[#   4]
          +0.013*[#   8]+0.005*[#   5]+0.005*[#   9]+0.003*[#   2]+0.003*[#   6]
          
    |psi|^2 = 0.117

 k =  -0.1500000000  0.0866050808  0.0000000000
==== e(   1) =   -13.43889 eV ==== 
     psi = 0.389*[#   2]+0.389*[#   6]+0.060*[#   1]+0.060*[#  10]+0.028*[#   4]
          +0.028*[#   8]+0.010*[#   3]+0.010*[#   7]+0.009*[#   5]+0.009*[#   9]
          
    |psi|^2 = 0.991
==== e(   2) =    -9.08896 eV ==== 
     psi = 0.193*[#  10]+0.193*[#   1]+0.185*[#   7]+0.185*[#   3]+0.100*[#   2]
          +0.100*[#   6]+0.003*[#   4]+0.003*[#   8]+0.001*[#   5]+0.001*[#   9]
          
    |psi|^2 = 0.965
==== e(   3) =    -5.88722 eV ==== 
     psi = 0.274*[#   1]+0.274*[#  10]+0.191*[#   3]+0.191*[#   7]+0.012*[#   2]
          +0.012*[#   6]+0.008*[#   4]+0.008*[#   8]+0.003*[#   5]+0.003*[#   9]
          
    |psi|^2 = 0.977
==== e(   4) =    -4.88497 eV ==== 
     psi = 0.270*[#   4]+0.270*[#   8]+0.091*[#   5]+0.091*[#   9]+0.066*[#   2]
          +0.066*[#   6]+0.064*[#   3]+0.064*[#   7]
    |psi|^2 = 0.982
==== e(   5) =    -3.82434 eV ==== 
     psi = 0.368*[#   5]+0.368*[#   9]+0.124*[#   4]+0.124*[#   8]
    |psi|^2 = 0.983
==== e(   6) =    -0.51457 eV ==== 
     psi = 0.158*[#   4]+0.158*[#   8]+0.130*[#   3]+0.130*[#   7]+0.089*[#   2]
          +0.089*[#   6]+0.052*[#   5]+0.052*[#   9]+0.036*[#   1]+0.036*[#  10]
          
    |psi|^2 = 0.931
==== e(   7) =     0.66860 eV ==== 
     psi = 0.132*[#   4]+0.132*[#   8]+0.124*[#   1]+0.124*[#  10]+0.073*[#   3]
          +0.073*[#   7]+0.043*[#   5]+0.043*[#   9]+0.017*[#   2]+0.017*[#   6]
          
    |psi|^2 = 0.780
==== e(   8) =     1.19669 eV ==== 
     psi = 0.088*[#   2]+0.089*[#   6]+0.046*[#   4]+0.046*[#   8]+0.045*[#   1]
          +0.045*[#  10]+0.015*[#   5]+0.015*[#   9]+0.011*[#   3]+0.011*[#   7]
          
    |psi|^2 = 0.412
==== e(   9) =     1.34196 eV ==== 
     psi = 0.337*[#   5]+0.336*[#   9]+0.111*[#   4]+0.111*[#   8]
    |psi|^2 = 0.896
==== e(  10) =     1.50184 eV ==== 
     psi = 0.027*[#   3]+0.027*[#   7]+0.026*[#   4]+0.026*[#   8]+0.016*[#  10]
          +0.016*[#   1]+0.009*[#   5]+0.009*[#   9]+0.008*[#   2]+0.008*[#   6]
          
    |psi|^2 = 0.173

 k =  -0.1750000000  0.1010392610  0.0000000000
==== e(   1) =   -13.35244 eV ==== 
     psi = 0.381*[#   2]+0.381*[#   6]+0.059*[#   1]+0.059*[#  10]+0.036*[#   4]
          +0.036*[#   8]+0.012*[#   5]+0.012*[#   9]+0.009*[#   3]+0.009*[#   7]
          
    |psi|^2 = 0.991
==== e(   2) =    -9.08208 eV ==== 
     psi = 0.194*[#  10]+0.194*[#   1]+0.175*[#   7]+0.175*[#   3]+0.107*[#   2]
          +0.107*[#   6]+0.005*[#   4]+0.005*[#   8]+0.002*[#   5]+0.002*[#   9]
          
    |psi|^2 = 0.967
==== e(   3) =    -5.89539 eV ==== 
     psi = 0.271*[#   1]+0.271*[#  10]+0.189*[#   3]+0.189*[#   7]+0.014*[#   4]
          +0.014*[#   8]+0.010*[#   2]+0.010*[#   6]+0.005*[#   5]+0.005*[#   9]
          
    |psi|^2 = 0.978
==== e(   4) =    -5.20449 eV ==== 
     psi = 0.256*[#   4]+0.256*[#   8]+0.086*[#   5]+0.086*[#   9]+0.076*[#   3]
          +0.076*[#   7]+0.069*[#   2]+0.069*[#   6]+0.004*[#   1]+0.004*[#  10]
          
    |psi|^2 = 0.982
==== e(   5) =    -3.93550 eV ==== 
     psi = 0.368*[#   5]+0.369*[#   9]+0.124*[#   4]+0.124*[#   8]
    |psi|^2 = 0.984
==== e(   6) =    -0.57618 eV ==== 
     psi = 0.176*[#   4]+0.176*[#   8]+0.110*[#   3]+0.110*[#   7]+0.091*[#   2]
          +0.091*[#   6]+0.058*[#   5]+0.058*[#   9]+0.027*[#   1]+0.027*[#  10]
          
    |psi|^2 = 0.926
==== e(   7) =     0.78654 eV ==== 
     psi = 0.157*[#   1]+0.157*[#  10]+0.085*[#   4]+0.085*[#   8]+0.081*[#   3]
          +0.081*[#   7]+0.028*[#   5]+0.028*[#   9]+0.019*[#   2]+0.019*[#   6]
          
    |psi|^2 = 0.742
==== e(   8) =     1.32399 eV ==== 
     psi = 0.067*[#   2]+0.067*[#   6]+0.041*[#   1]+0.041*[#  10]+0.035*[#   4]
          +0.035*[#   8]+0.020*[#   7]+0.020*[#   3]+0.012*[#   5]+0.012*[#   9]
          
    |psi|^2 = 0.349
==== e(   9) =     1.59108 eV ==== 
     psi = 0.335*[#   5]+0.335*[#   9]+0.113*[#   4]+0.113*[#   8]
    |psi|^2 = 0.896
==== e(  10) =     1.65111 eV ==== 
     psi = 0.044*[#   4]+0.044*[#   8]+0.039*[#   3]+0.039*[#   7]+0.017*[#   5]
          +0.017*[#   9]+0.017*[#   2]+0.017*[#   6]+0.010*[#   1]+0.010*[#  10]
          
    |psi|^2 = 0.255

 k =  -0.2000000000  0.1154734411  0.0000000000
==== e(   1) =   -13.25348 eV ==== 
     psi = 0.372*[#   2]+0.372*[#   6]+0.058*[#   1]+0.058*[#  10]+0.043*[#   4]
          +0.043*[#   8]+0.014*[#   5]+0.014*[#   9]+0.008*[#   3]+0.008*[#   7]
          
    |psi|^2 = 0.991
==== e(   2) =    -9.08226 eV ==== 
     psi = 0.194*[#  10]+0.194*[#   1]+0.164*[#   7]+0.164*[#   3]+0.116*[#   2]
          +0.116*[#   6]+0.008*[#   4]+0.008*[#   8]+0.003*[#   5]+0.003*[#   9]
          
    |psi|^2 = 0.969
==== e(   3) =    -5.91487 eV ==== 
     psi = 0.260*[#   1]+0.260*[#  10]+0.183*[#   3]+0.182*[#   7]+0.028*[#   4]
          +0.028*[#   8]+0.010*[#   2]+0.010*[#   5]+0.010*[#   6]+0.010*[#   9]
          
    |psi|^2 = 0.979
==== e(   4) =    -5.50231 eV ==== 
     psi = 0.233*[#   4]+0.234*[#   8]+0.094*[#   3]+0.094*[#   7]+0.079*[#   5]
          +0.079*[#   9]+0.068*[#   2]+0.068*[#   6]+0.016*[#   1]+0.016*[#  10]
          
    |psi|^2 = 0.981
==== e(   5) =    -4.04727 eV ==== 
     psi = 0.369*[#   5]+0.369*[#   9]+0.124*[#   4]+0.124*[#   8]
    |psi|^2 = 0.986
==== e(   6) =    -0.66034 eV ==== 
     psi = 0.183*[#   4]+0.183*[#   8]+0.100*[#   3]+0.100*[#   7]+0.097*[#   2]
          +0.097*[#   6]+0.060*[#   5]+0.060*[#   9]+0.021*[#   1]+0.021*[#  10]
          
    |psi|^2 = 0.922
==== e(   7) =     0.89636 eV ==== 
     psi = 0.175*[#   1]+0.175*[#  10]+0.084*[#   3]+0.084*[#   7]+0.058*[#   4]
          +0.058*[#   8]+0.023*[#   2]+0.023*[#   6]+0.019*[#   5]+0.019*[#   9]
          
    |psi|^2 = 0.720
==== e(   8) =     1.39530 eV ==== 
     psi = 0.053*[#   6]+0.053*[#   2]+0.050*[#  10]+0.050*[#   1]+0.030*[#   7]
          +0.029*[#   3]+0.022*[#   4]+0.022*[#   8]+0.007*[#   5]+0.007*[#   9]
          
    |psi|^2 = 0.325
==== e(   9) =     1.84157 eV ==== 
     psi = 0.063*[#   4]+0.063*[#   8]+0.047*[#   3]+0.047*[#   7]+0.019*[#   5]
          +0.019*[#   9]+0.015*[#   2]+0.015*[#   6]+0.005*[#   1]+0.005*[#  10]
          
    |psi|^2 = 0.299
==== e(  10) =     1.85118 eV ==== 
     psi = 0.335*[#   5]+0.335*[#   9]+0.098*[#   4]+0.098*[#   8]+0.002*[#   3]
          +0.002*[#   7]
    |psi|^2 = 0.871

 k =  -0.2250000000  0.1299076212  0.0000000000
==== e(   1) =   -13.14243 eV ==== 
     psi = 0.364*[#   2]+0.364*[#   6]+0.057*[#   1]+0.057*[#  10]+0.050*[#   4]
          +0.050*[#   8]+0.017*[#   5]+0.017*[#   9]+0.007*[#   3]+0.007*[#   7]
          
    |psi|^2 = 0.991
==== e(   2) =    -9.09359 eV ==== 
     psi = 0.193*[#  10]+0.193*[#   1]+0.150*[#   7]+0.150*[#   3]+0.126*[#   2]
          +0.126*[#   6]+0.013*[#   4]+0.013*[#   8]+0.004*[#   5]+0.004*[#   9]
          
    |psi|^2 = 0.972
==== e(   3) =    -5.97640 eV ==== 
     psi = 0.191*[#   1]+0.191*[#  10]+0.153*[#   3]+0.153*[#   7]+0.096*[#   4]
          +0.096*[#   8]+0.032*[#   5]+0.032*[#   9]+0.019*[#   2]+0.019*[#   6]
          
    |psi|^2 = 0.981
==== e(   4) =    -5.74100 eV ==== 
     psi = 0.158*[#   4]+0.158*[#   8]+0.137*[#   3]+0.137*[#   7]+0.087*[#   1]
          +0.087*[#  10]+0.055*[#   2]+0.055*[#   6]+0.053*[#   5]+0.053*[#   9]
          
    |psi|^2 = 0.979
==== e(   5) =    -4.15679 eV ==== 
     psi = 0.369*[#   5]+0.370*[#   9]+0.124*[#   4]+0.124*[#   8]
    |psi|^2 = 0.987
==== e(   6) =    -0.75136 eV ==== 
     psi = 0.183*[#   4]+0.183*[#   8]+0.104*[#   2]+0.104*[#   6]+0.094*[#   3]
          +0.094*[#   7]+0.060*[#   5]+0.060*[#   9]+0.017*[#   1]+0.017*[#  10]
          
    |psi|^2 = 0.918
==== e(   7) =     0.99620 eV ==== 
     psi = 0.184*[#   1]+0.183*[#  10]+0.087*[#   3]+0.087*[#   7]+0.044*[#   4]
          +0.044*[#   8]+0.028*[#   2]+0.028*[#   6]+0.015*[#   5]+0.015*[#   9]
          
    |psi|^2 = 0.713
==== e(   8) =     1.40515 eV ==== 
     psi = 0.066*[#  10]+0.066*[#   1]+0.054*[#   2]+0.054*[#   6]+0.042*[#   7]
          +0.041*[#   3]+0.019*[#   4]+0.019*[#   8]+0.006*[#   5]+0.006*[#   9]
          
    |psi|^2 = 0.374
==== e(   9) =     2.02249 eV ==== 
     psi = 0.054*[#   3]+0.054*[#   7]+0.033*[#   4]+0.033*[#   8]+0.010*[#   5]
          +0.010*[#   9]+0.007*[#   1]+0.007*[#  10]+0.006*[#   2]+0.006*[#   6]
          
    |psi|^2 = 0.219
==== e(  10) =     2.10984 eV ==== 
     psi = 0.340*[#   5]+0.340*[#   9]+0.111*[#   4]+0.111*[#   8]
    |psi|^2 = 0.902

 k =  -0.2500000000  0.1443418014  0.0000000000
==== e(   1) =   -13.01984 eV ==== 
     psi = 0.356*[#   2]+0.356*[#   6]+0.057*[#   1]+0.057*[#   4]+0.057*[#   8]
          +0.057*[#  10]+0.019*[#   5]+0.019*[#   9]+0.006*[#   3]+0.006*[#   7]
          
    |psi|^2 = 0.991
==== e(   2) =    -9.12103 eV ==== 
     psi = 0.189*[#  10]+0.189*[#   1]+0.139*[#   2]+0.138*[#   6]+0.133*[#   7]
          +0.133*[#   3]+0.020*[#   4]+0.020*[#   8]+0.007*[#   5]+0.007*[#   9]
          
    |psi|^2 = 0.975
==== e(   3) =    -6.14742 eV ==== 
     psi = 0.191*[#   4]+0.191*[#   8]+0.121*[#   3]+0.121*[#   7]+0.074*[#   1]
          +0.074*[#  10]+0.064*[#   5]+0.064*[#   9]+0.040*[#   2]+0.040*[#   6]
          
    |psi|^2 = 0.981
==== e(   4) =    -5.84689 eV ==== 
     psi = 0.207*[#   1]+0.207*[#  10]+0.185*[#   3]+0.185*[#   7]+0.053*[#   4]
          +0.054*[#   8]+0.027*[#   2]+0.027*[#   6]+0.018*[#   5]+0.018*[#   9]
          
    |psi|^2 = 0.979
==== e(   5) =    -4.26178 eV ==== 
     psi = 0.370*[#   5]+0.370*[#   9]+0.124*[#   4]+0.124*[#   8]
    |psi|^2 = 0.987
==== e(   6) =    -0.84056 eV ==== 
     psi = 0.179*[#   4]+0.179*[#   8]+0.112*[#   2]+0.112*[#   6]+0.093*[#   3]
          +0.093*[#   7]+0.059*[#   5]+0.059*[#   9]+0.014*[#   1]+0.014*[#  10]
          
    |psi|^2 = 0.914
==== e(   7) =     1.08287 eV ==== 
     psi = 0.180*[#   1]+0.180*[#  10]+0.091*[#   3]+0.090*[#   7]+0.039*[#   4]
          +0.039*[#   8]+0.031*[#   2]+0.031*[#   6]+0.013*[#   5]+0.013*[#   9]
          
    |psi|^2 = 0.705
==== e(   8) =     1.35305 eV ==== 
     psi = 0.086*[#  10]+0.086*[#   1]+0.062*[#   6]+0.062*[#   2]+0.052*[#   7]
          +0.051*[#   3]+0.018*[#   4]+0.018*[#   8]+0.006*[#   5]+0.006*[#   9]
          
    |psi|^2 = 0.447
==== e(   9) =     2.13563 eV ==== 
     psi = 0.039*[#   3]+0.039*[#   7]+0.009*[#   4]+0.009*[#   8]+0.005*[#   1]
          +0.005*[#  10]+0.003*[#   5]+0.003*[#   9]
    |psi|^2 = 0.111
==== e(  10) =     2.35449 eV ==== 
     psi = 0.339*[#   9]+0.338*[#   5]+0.112*[#   4]+0.112*[#   8]
    |psi|^2 = 0.902

 k =  -0.2750000000  0.1587759815  0.0000000000
==== e(   1) =   -12.88644 eV ==== 
     psi = 0.349*[#   2]+0.349*[#   6]+0.063*[#   4]+0.063*[#   8]+0.057*[#   1]
          +0.057*[#  10]+0.021*[#   5]+0.021*[#   9]+0.005*[#   3]+0.005*[#   7]
          
    |psi|^2 = 0.991
==== e(   2) =    -9.16985 eV ==== 
     psi = 0.183*[#  10]+0.183*[#   1]+0.153*[#   2]+0.153*[#   6]+0.114*[#   7]
          +0.114*[#   3]+0.029*[#   4]+0.029*[#   8]+0.010*[#   5]+0.010*[#   9]
          
    |psi|^2 = 0.978
==== e(   3) =    -6.35653 eV ==== 
     psi = 0.204*[#   4]+0.204*[#   8]+0.128*[#   3]+0.128*[#   7]+0.068*[#   5]
          +0.068*[#   9]+0.049*[#   1]+0.049*[#  10]+0.041*[#   2]+0.041*[#   6]
          
    |psi|^2 = 0.979
==== e(   4) =    -5.88526 eV ==== 
     psi = 0.237*[#   1]+0.237*[#  10]+0.196*[#   3]+0.195*[#   7]+0.030*[#   4]
          +0.030*[#   8]+0.017*[#   2]+0.017*[#   6]+0.010*[#   5]+0.010*[#   9]
          
    |psi|^2 = 0.980
==== e(   5) =    -4.36046 eV ==== 
     psi = 0.370*[#   5]+0.370*[#   9]+0.124*[#   4]+0.124*[#   8]
    |psi|^2 = 0.988
==== e(   6) =    -0.92303 eV ==== 
     psi = 0.172*[#   4]+0.172*[#   8]+0.120*[#   2]+0.120*[#   6]+0.093*[#   3]
          +0.093*[#   7]+0.057*[#   5]+0.057*[#   9]+0.012*[#   1]+0.012*[#  10]
          
    |psi|^2 = 0.909
==== e(   7) =     1.13740 eV ==== 
     psi = 0.130*[#   1]+0.129*[#  10]+0.089*[#   3]+0.088*[#   7]+0.046*[#   8]
          +0.046*[#   4]+0.031*[#   2]+0.030*[#   6]+0.015*[#   5]+0.015*[#   9]
          
    |psi|^2 = 0.620
==== e(   8) =     1.26489 eV ==== 
     psi = 0.146*[#  10]+0.145*[#   1]+0.075*[#   6]+0.074*[#   2]+0.064*[#   7]
          +0.063*[#   3]+0.009*[#   4]+0.009*[#   8]+0.003*[#   5]+0.003*[#   9]
          
    |psi|^2 = 0.591
==== e(   9) =     2.21273 eV ==== 
     psi = 0.019*[#   3]+0.019*[#   7]+0.002*[#   4]+0.002*[#   8]
    |psi|^2 = 0.045
==== e(  10) =     2.46890 eV ==== 
     psi = 0.013*[#   4]+0.013*[#   8]+0.008*[#   3]+0.008*[#   7]+0.006*[#   2]
          +0.006*[#   6]+0.004*[#   9]+0.004*[#   5]+0.002*[#   1]+0.002*[#  10]
          
    |psi|^2 = 0.065

 k =  -0.3000000000  0.1732101617  0.0000000000
==== e(   1) =   -12.74323 eV ==== 
     psi = 0.343*[#   6]+0.343*[#   2]+0.068*[#   4]+0.068*[#   8]+0.057*[#   1]
          +0.057*[#  10]+0.023*[#   5]+0.023*[#   9]+0.004*[#   3]+0.004*[#   7]
          
    |psi|^2 = 0.991
==== e(   2) =    -9.24440 eV ==== 
     psi = 0.174*[#  10]+0.174*[#   1]+0.168*[#   2]+0.167*[#   6]+0.094*[#   3]
          +0.094*[#   7]+0.041*[#   4]+0.041*[#   8]+0.014*[#   5]+0.014*[#   9]
          
    |psi|^2 = 0.980
==== e(   3) =    -6.54156 eV ==== 
     psi = 0.195*[#   4]+0.195*[#   8]+0.143*[#   7]+0.143*[#   3]+0.065*[#   5]
          +0.065*[#   9]+0.052*[#   1]+0.052*[#  10]+0.034*[#   2]+0.034*[#   6]
          
    |psi|^2 = 0.978
==== e(   4) =    -5.91291 eV ==== 
     psi = 0.243*[#   1]+0.243*[#  10]+0.200*[#   3]+0.199*[#   7]+0.026*[#   4]
          +0.026*[#   8]+0.013*[#   2]+0.013*[#   6]+0.009*[#   5]+0.009*[#   9]
          
    |psi|^2 = 0.981
==== e(   5) =    -4.45146 eV ==== 
     psi = 0.370*[#   5]+0.371*[#   9]+0.124*[#   4]+0.124*[#   8]
    |psi|^2 = 0.989
==== e(   6) =    -0.99602 eV ==== 
     psi = 0.165*[#   4]+0.165*[#   8]+0.127*[#   2]+0.127*[#   6]+0.095*[#   3]
          +0.095*[#   7]+0.054*[#   5]+0.054*[#   9]+0.010*[#   1]+0.010*[#  10]
          
    |psi|^2 = 0.904
==== e(   7) =     1.06475 eV ==== 
     psi = 0.066*[#   3]+0.066*[#   7]+0.059*[#   1]+0.058*[#  10]+0.053*[#   2]
          +0.052*[#   6]+0.051*[#   8]+0.051*[#   4]+0.017*[#   5]+0.017*[#   9]
          
    |psi|^2 = 0.492
==== e(   8) =     1.25447 eV ==== 
     psi = 0.218*[#  10]+0.218*[#   1]+0.091*[#   7]+0.090*[#   3]+0.064*[#   6]
          +0.064*[#   2]+0.007*[#   4]+0.007*[#   8]+0.002*[#   5]+0.002*[#   9]
          
    |psi|^2 = 0.764
==== e(   9) =     2.30638 eV ==== 
     psi = 0.008*[#   3]+0.008*[#   7]+0.002*[#   1]+0.002*[#  10]
    |psi|^2 = 0.023
==== e(  10) =     2.73830 eV ==== 
     psi = 0.326*[#   5]+0.324*[#   9]+0.109*[#   8]+0.107*[#   4]
    |psi|^2 = 0.866

 k =  -0.3250000000  0.1876443418  0.0000000000
==== e(   1) =   -12.59158 eV ==== 
     psi = 0.337*[#   6]+0.337*[#   2]+0.073*[#   4]+0.073*[#   8]+0.058*[#   1]
          +0.058*[#  10]+0.024*[#   5]+0.024*[#   9]+0.003*[#   3]+0.003*[#   7]
          
    |psi|^2 = 0.991
==== e(   2) =    -9.34675 eV ==== 
     psi = 0.182*[#   2]+0.182*[#   6]+0.162*[#   1]+0.162*[#  10]+0.074*[#   3]
          +0.074*[#   7]+0.055*[#   4]+0.055*[#   8]+0.018*[#   5]+0.018*[#   9]
          
    |psi|^2 = 0.983
==== e(   3) =    -6.68905 eV ==== 
     psi = 0.180*[#   4]+0.180*[#   8]+0.158*[#   7]+0.158*[#   3]+0.063*[#   1]
          +0.064*[#  10]+0.060*[#   5]+0.060*[#   9]+0.026*[#   2]+0.026*[#   6]
          
    |psi|^2 = 0.977
==== e(   4) =    -5.94024 eV ==== 
     psi = 0.242*[#   1]+0.241*[#  10]+0.203*[#   3]+0.203*[#   7]+0.027*[#   4]
          +0.027*[#   8]+0.011*[#   2]+0.011*[#   6]+0.009*[#   5]+0.009*[#   9]
          
    |psi|^2 = 0.982
==== e(   5) =    -4.53368 eV ==== 
     psi = 0.371*[#   5]+0.371*[#   9]+0.124*[#   4]+0.124*[#   8]
    |psi|^2 = 0.989
==== e(   6) =    -1.05812 eV ==== 
     psi = 0.156*[#   4]+0.156*[#   8]+0.134*[#   2]+0.134*[#   6]+0.098*[#   3]
          +0.099*[#   7]+0.052*[#   5]+0.052*[#   9]+0.009*[#   1]+0.009*[#  10]
          
    |psi|^2 = 0.898
==== e(   7) =     0.91898 eV ==== 
     psi = 0.066*[#   2]+0.066*[#   6]+0.062*[#   1]+0.062*[#  10]+0.060*[#   3]
          +0.060*[#   7]+0.054*[#   4]+0.054*[#   8]+0.018*[#   5]+0.018*[#   9]
          
    |psi|^2 = 0.520
==== e(   8) =     1.28676 eV ==== 
     psi = 0.212*[#  10]+0.212*[#   1]+0.098*[#   7]+0.097*[#   3]+0.061*[#   6]
          +0.061*[#   2]+0.010*[#   4]+0.010*[#   8]+0.003*[#   5]+0.003*[#   9]
          
    |psi|^2 = 0.767
==== e(   9) =     2.42697 eV ==== 
     psi = 0.007*[#   1]+0.007*[#  10]+0.003*[#   3]+0.003*[#   7]+0.001*[#   4]
          +0.001*[#   8]
    |psi|^2 = 0.022
==== e(  10) =     2.85685 eV ==== 
     psi = 0.308*[#   5]+0.305*[#   9]+0.105*[#   8]+0.103*[#   4]
    |psi|^2 = 0.821

 k =  -0.3500000000  0.2020785219  0.0000000000
==== e(   1) =   -12.43353 eV ==== 
     psi = 0.333*[#   6]+0.332*[#   2]+0.076*[#   4]+0.076*[#   8]+0.059*[#   1]
          +0.059*[#  10]+0.025*[#   5]+0.025*[#   9]+0.002*[#   3]+0.002*[#   7]
          
    |psi|^2 = 0.991
==== e(   2) =    -9.47544 eV ==== 
     psi = 0.195*[#   2]+0.195*[#   6]+0.148*[#   1]+0.148*[#  10]+0.070*[#   4]
          +0.070*[#   8]+0.056*[#   3]+0.056*[#   7]+0.023*[#   5]+0.023*[#   9]
          
    |psi|^2 = 0.985
==== e(   3) =    -6.79722 eV ==== 
     psi = 0.172*[#   7]+0.172*[#   3]+0.164*[#   4]+0.164*[#   8]+0.079*[#   1]
          +0.079*[#  10]+0.055*[#   5]+0.055*[#   9]+0.018*[#   2]+0.018*[#   6]
          
    |psi|^2 = 0.976
==== e(   4) =    -5.96934 eV ==== 
     psi = 0.238*[#   1]+0.238*[#  10]+0.206*[#   3]+0.206*[#   7]+0.028*[#   4]
          +0.028*[#   8]+0.010*[#   2]+0.010*[#   6]+0.010*[#   5]+0.010*[#   9]
          
    |psi|^2 = 0.982
==== e(   5) =    -4.60630 eV ==== 
     psi = 0.371*[#   5]+0.371*[#   9]+0.124*[#   4]+0.124*[#   8]
    |psi|^2 = 0.990
==== e(   6) =    -1.10891 eV ==== 
     psi = 0.148*[#   4]+0.148*[#   8]+0.140*[#   2]+0.140*[#   6]+0.102*[#   3]
          +0.102*[#   7]+0.049*[#   5]+0.049*[#   9]+0.007*[#   1]+0.007*[#  10]
          
    |psi|^2 = 0.891
==== e(   7) =     0.76888 eV ==== 
     psi = 0.073*[#   2]+0.073*[#   6]+0.066*[#   1]+0.066*[#  10]+0.060*[#   4]
          +0.060*[#   8]+0.057*[#   3]+0.057*[#   7]+0.020*[#   5]+0.020*[#   9]
          
    |psi|^2 = 0.551
==== e(   8) =     1.30840 eV ==== 
     psi = 0.203*[#  10]+0.203*[#   1]+0.099*[#   3]+0.099*[#   7]+0.063*[#   6]
          +0.063*[#   2]+0.010*[#   4]+0.010*[#   8]+0.003*[#   5]+0.003*[#   9]
          
    |psi|^2 = 0.756
==== e(   9) =     2.57435 eV ==== 
     psi = 0.013*[#   1]+0.014*[#  10]+0.002*[#   3]+0.002*[#   7]+0.001*[#   4]
          +0.001*[#   8]
    |psi|^2 = 0.036
==== e(  10) =     2.92988 eV ==== 
     psi = 0.295*[#   5]+0.295*[#   9]+0.098*[#   8]+0.098*[#   4]
    |psi|^2 = 0.786

 k =  -0.3750000000  0.2165127021  0.0000000000
==== e(   1) =   -12.27200 eV ==== 
     psi = 0.329*[#   6]+0.329*[#   2]+0.078*[#   4]+0.078*[#   8]+0.061*[#   1]
          +0.061*[#  10]+0.026*[#   5]+0.026*[#   9]+0.002*[#   3]+0.002*[#   7]
          
    |psi|^2 = 0.991
==== e(   2) =    -9.62464 eV ==== 
     psi = 0.205*[#   2]+0.205*[#   6]+0.134*[#   1]+0.134*[#  10]+0.084*[#   4]
          +0.084*[#   8]+0.041*[#   3]+0.041*[#   7]+0.028*[#   5]+0.028*[#   9]
          
    |psi|^2 = 0.986
==== e(   3) =    -6.86954 eV ==== 
     psi = 0.183*[#   7]+0.183*[#   3]+0.149*[#   4]+0.149*[#   8]+0.096*[#  10]
          +0.095*[#   1]+0.050*[#   5]+0.050*[#   9]+0.011*[#   2]+0.011*[#   6]
          
    |psi|^2 = 0.977
==== e(   4) =    -5.99955 eV ==== 
     psi = 0.233*[#   1]+0.233*[#  10]+0.209*[#   3]+0.209*[#   7]+0.030*[#   4]
          +0.030*[#   8]+0.010*[#   5]+0.010*[#   9]+0.009*[#   2]+0.009*[#   6]
          
    |psi|^2 = 0.983
==== e(   5) =    -4.66868 eV ==== 
     psi = 0.371*[#   5]+0.371*[#   9]+0.124*[#   4]+0.124*[#   8]
    |psi|^2 = 0.990
==== e(   6) =    -1.14869 eV ==== 
     psi = 0.145*[#   2]+0.145*[#   6]+0.139*[#   4]+0.139*[#   8]+0.107*[#   3]
          +0.107*[#   7]+0.046*[#   5]+0.046*[#   9]+0.006*[#   1]+0.006*[#  10]
          
    |psi|^2 = 0.884
==== e(   7) =     0.62932 eV ==== 
     psi = 0.078*[#   2]+0.078*[#   6]+0.069*[#   1]+0.069*[#  10]+0.067*[#   4]
          +0.067*[#   8]+0.053*[#   3]+0.053*[#   7]+0.022*[#   5]+0.022*[#   9]
          
    |psi|^2 = 0.580
==== e(   8) =     1.31751 eV ==== 
     psi = 0.194*[#   1]+0.194*[#  10]+0.099*[#   3]+0.099*[#   7]+0.065*[#   6]
          +0.065*[#   2]+0.010*[#   4]+0.010*[#   8]+0.003*[#   5]+0.003*[#   9]
          
    |psi|^2 = 0.743
==== e(   9) =     2.74751 eV ==== 
     psi = 0.021*[#   1]+0.021*[#  10]+0.004*[#   3]+0.004*[#   7]+0.002*[#   4]
          +0.002*[#   8]+0.001*[#   2]+0.001*[#   6]
    |psi|^2 = 0.056
==== e(  10) =     2.96856 eV ==== 
     psi = 0.281*[#   5]+0.281*[#   9]+0.093*[#   4]+0.093*[#   8]
    |psi|^2 = 0.749

 k =  -0.4000000000  0.2309468822  0.0000000000
==== e(   1) =   -12.11167 eV ==== 
     psi = 0.327*[#   6]+0.327*[#   2]+0.079*[#   4]+0.079*[#   8]+0.063*[#   1]
          +0.063*[#  10]+0.026*[#   5]+0.026*[#   9]
    |psi|^2 = 0.991
==== e(   2) =    -9.78492 eV ==== 
     psi = 0.212*[#   2]+0.212*[#   6]+0.121*[#   1]+0.121*[#  10]+0.098*[#   4]
          +0.098*[#   8]+0.033*[#   5]+0.033*[#   9]+0.030*[#   3]+0.030*[#   7]
          
    |psi|^2 = 0.986
==== e(   3) =    -6.91280 eV ==== 
     psi = 0.190*[#   7]+0.190*[#   3]+0.135*[#   4]+0.135*[#   8]+0.111*[#  10]
          +0.111*[#   1]+0.045*[#   5]+0.045*[#   9]+0.007*[#   2]+0.007*[#   6]
          
    |psi|^2 = 0.977
==== e(   4) =    -6.02961 eV ==== 
     psi = 0.227*[#   1]+0.227*[#  10]+0.213*[#   3]+0.212*[#   7]+0.033*[#   4]
          +0.033*[#   8]+0.011*[#   5]+0.011*[#   9]+0.008*[#   2]+0.008*[#   6]
          
    |psi|^2 = 0.983
==== e(   5) =    -4.72031 eV ==== 
     psi = 0.371*[#   5]+0.371*[#   9]+0.124*[#   4]+0.124*[#   8]
    |psi|^2 = 0.990
==== e(   6) =    -1.17833 eV ==== 
     psi = 0.149*[#   2]+0.149*[#   6]+0.131*[#   4]+0.131*[#   8]+0.111*[#   3]
          +0.111*[#   7]+0.043*[#   5]+0.043*[#   9]+0.004*[#   1]+0.004*[#  10]
          
    |psi|^2 = 0.877
==== e(   7) =     0.50756 eV ==== 
     psi = 0.083*[#   2]+0.083*[#   6]+0.074*[#   4]+0.074*[#   8]+0.072*[#   1]
          +0.072*[#  10]+0.049*[#   3]+0.049*[#   7]+0.025*[#   5]+0.025*[#   9]
          
    |psi|^2 = 0.606
==== e(   8) =     1.31765 eV ==== 
     psi = 0.187*[#   1]+0.187*[#  10]+0.099*[#   3]+0.099*[#   7]+0.066*[#   6]
          +0.066*[#   2]+0.009*[#   4]+0.009*[#   8]+0.003*[#   5]+0.003*[#   9]
          
    |psi|^2 = 0.729
==== e(   9) =     2.94304 eV ==== 
     psi = 0.028*[#   1]+0.028*[#  10]+0.007*[#   3]+0.007*[#   7]+0.002*[#   4]
          +0.002*[#   8]+0.002*[#   2]+0.002*[#   6]
    |psi|^2 = 0.078
==== e(  10) =     2.98554 eV ==== 
     psi = 0.270*[#   5]+0.270*[#   9]+0.089*[#   4]+0.089*[#   8]
    |psi|^2 = 0.719

 k =  -0.4250000000  0.2453810624  0.0000000000
==== e(   1) =   -11.95996 eV ==== 
     psi = 0.326*[#   6]+0.326*[#   2]+0.078*[#   4]+0.078*[#   8]+0.065*[#  10]
          +0.065*[#   1]+0.026*[#   5]+0.026*[#   9]
    |psi|^2 = 0.991
==== e(   2) =    -9.94328 eV ==== 
     psi = 0.216*[#   2]+0.216*[#   6]+0.110*[#   1]+0.110*[#  10]+0.109*[#   8]
          +0.109*[#   4]+0.036*[#   5]+0.037*[#   9]+0.022*[#   3]+0.022*[#   7]
          
    |psi|^2 = 0.986
==== e(   3) =    -6.93506 eV ==== 
     psi = 0.194*[#   7]+0.194*[#   3]+0.125*[#  10]+0.125*[#   1]+0.125*[#   4]
          +0.124*[#   8]+0.042*[#   5]+0.042*[#   9]+0.003*[#   2]+0.003*[#   6]
          
    |psi|^2 = 0.978
==== e(   4) =    -6.05730 eV ==== 
     psi = 0.222*[#   1]+0.222*[#  10]+0.216*[#   3]+0.215*[#   7]+0.035*[#   4]
          +0.035*[#   8]+0.012*[#   5]+0.012*[#   9]+0.008*[#   2]+0.008*[#   6]
          
    |psi|^2 = 0.983
==== e(   5) =    -4.76081 eV ==== 
     psi = 0.371*[#   5]+0.371*[#   9]+0.124*[#   4]+0.124*[#   8]
    |psi|^2 = 0.990
==== e(   6) =    -1.19912 eV ==== 
     psi = 0.152*[#   2]+0.152*[#   6]+0.124*[#   4]+0.124*[#   8]+0.115*[#   3]
          +0.115*[#   7]+0.041*[#   5]+0.041*[#   9]+0.003*[#   1]+0.003*[#  10]
          
    |psi|^2 = 0.871
==== e(   7) =     0.40832 eV ==== 
     psi = 0.086*[#   2]+0.086*[#   6]+0.081*[#   4]+0.081*[#   8]+0.074*[#   1]
          +0.074*[#  10]+0.046*[#   3]+0.046*[#   7]+0.027*[#   5]+0.027*[#   9]
          
    |psi|^2 = 0.628
==== e(   8) =     1.31301 eV ==== 
     psi = 0.182*[#   1]+0.182*[#  10]+0.098*[#   3]+0.098*[#   7]+0.067*[#   6]
          +0.067*[#   2]+0.009*[#   4]+0.009*[#   8]+0.003*[#   5]+0.003*[#   9]
          
    |psi|^2 = 0.719
==== e(   9) =     2.99052 eV ==== 
     psi = 0.261*[#   5]+0.261*[#   9]+0.087*[#   4]+0.087*[#   8]
    |psi|^2 = 0.696
==== e(  10) =     3.15893 eV ==== 
     psi = 0.033*[#   1]+0.033*[#  10]+0.011*[#   3]+0.011*[#   7]+0.002*[#   4]
          +0.002*[#   8]+0.002*[#   2]+0.002*[#   6]
    |psi|^2 = 0.100

 k =  -0.4500000000  0.2598152425  0.0000000000
==== e(   1) =   -11.82889 eV ==== 
     psi = 0.326*[#   6]+0.326*[#   2]+0.076*[#   4]+0.076*[#   8]+0.068*[#  10]
          +0.067*[#   1]+0.026*[#   5]+0.026*[#   9]
    |psi|^2 = 0.992
==== e(   2) =   -10.08279 eV ==== 
     psi = 0.217*[#   2]+0.217*[#   6]+0.119*[#   8]+0.119*[#   4]+0.101*[#   1]
          +0.101*[#  10]+0.040*[#   5]+0.040*[#   9]+0.016*[#   3]+0.016*[#   7]
          
    |psi|^2 = 0.986
==== e(   3) =    -6.94414 eV ==== 
     psi = 0.197*[#   7]+0.196*[#   3]+0.136*[#  10]+0.135*[#   1]+0.117*[#   4]
          +0.117*[#   8]+0.039*[#   5]+0.039*[#   9]+0.001*[#   2]+0.001*[#   6]
          
    |psi|^2 = 0.978
==== e(   4) =    -6.07993 eV ==== 
     psi = 0.218*[#   3]+0.218*[#   7]+0.217*[#   1]+0.217*[#  10]+0.036*[#   4]
          +0.036*[#   8]+0.012*[#   5]+0.012*[#   9]+0.008*[#   2]+0.008*[#   6]
          
    |psi|^2 = 0.983
==== e(   5) =    -4.78993 eV ==== 
     psi = 0.371*[#   5]+0.371*[#   9]+0.124*[#   4]+0.124*[#   8]
    |psi|^2 = 0.991
==== e(   6) =    -1.21251 eV ==== 
     psi = 0.155*[#   2]+0.155*[#   6]+0.119*[#   4]+0.119*[#   8]+0.118*[#   3]
          +0.118*[#   7]+0.039*[#   5]+0.039*[#   9]+0.002*[#   1]+0.002*[#  10]
          
    |psi|^2 = 0.865
==== e(   7) =     0.33501 eV ==== 
     psi = 0.089*[#   2]+0.089*[#   6]+0.086*[#   4]+0.086*[#   8]+0.076*[#   1]
          +0.076*[#  10]+0.043*[#   3]+0.043*[#   7]+0.029*[#   5]+0.029*[#   9]
          
    |psi|^2 = 0.645
==== e(   8) =     1.30715 eV ==== 
     psi = 0.178*[#   1]+0.178*[#  10]+0.097*[#   3]+0.097*[#   7]+0.068*[#   2]
          +0.068*[#   6]+0.009*[#   4]+0.009*[#   8]+0.003*[#   5]+0.003*[#   9]
          
    |psi|^2 = 0.710
==== e(   9) =     2.99013 eV ==== 
     psi = 0.256*[#   5]+0.256*[#   9]+0.085*[#   4]+0.085*[#   8]
    |psi|^2 = 0.682
==== e(  10) =     3.39101 eV ==== 
     psi = 0.038*[#   1]+0.038*[#  10]+0.015*[#   3]+0.015*[#   7]+0.003*[#   2]
          +0.003*[#   6]+0.003*[#   4]+0.003*[#   8]
    |psi|^2 = 0.119

 k =  -0.4750000000  0.2742494226  0.0000000000
==== e(   1) =   -11.73631 eV ==== 
     psi = 0.328*[#   6]+0.328*[#   2]+0.074*[#   4]+0.074*[#   8]+0.070*[#  10]
          +0.070*[#   1]+0.025*[#   5]+0.025*[#   9]
    |psi|^2 = 0.992
==== e(   2) =   -10.18198 eV ==== 
     psi = 0.217*[#   2]+0.217*[#   6]+0.126*[#   8]+0.126*[#   4]+0.095*[#   1]
          +0.095*[#  10]+0.042*[#   5]+0.042*[#   9]+0.013*[#   3]+0.013*[#   7]
          
    |psi|^2 = 0.985
==== e(   3) =    -6.94672 eV ==== 
     psi = 0.198*[#   7]+0.197*[#   3]+0.142*[#  10]+0.142*[#   1]+0.112*[#   4]
          +0.112*[#   8]+0.037*[#   5]+0.037*[#   9]
    |psi|^2 = 0.979
==== e(   4) =    -6.09502 eV ==== 
     psi = 0.220*[#   3]+0.220*[#   7]+0.214*[#   1]+0.214*[#  10]+0.037*[#   4]
          +0.038*[#   8]+0.013*[#   5]+0.013*[#   9]+0.007*[#   2]+0.007*[#   6]
          
    |psi|^2 = 0.983
==== e(   5) =    -4.80747 eV ==== 
     psi = 0.371*[#   5]+0.371*[#   9]+0.124*[#   4]+0.124*[#   8]
    |psi|^2 = 0.991
==== e(   6) =    -1.21987 eV ==== 
     psi = 0.156*[#   2]+0.156*[#   6]+0.120*[#   3]+0.120*[#   7]+0.116*[#   4]
          +0.116*[#   8]+0.038*[#   5]+0.038*[#   9]
    |psi|^2 = 0.862
==== e(   7) =     0.28998 eV ==== 
     psi = 0.090*[#   2]+0.090*[#   6]+0.089*[#   4]+0.089*[#   8]+0.078*[#   1]
          +0.078*[#  10]+0.041*[#   3]+0.041*[#   7]+0.030*[#   5]+0.030*[#   9]
          
    |psi|^2 = 0.656
==== e(   8) =     1.30256 eV ==== 
     psi = 0.175*[#   1]+0.175*[#  10]+0.096*[#   3]+0.096*[#   7]+0.069*[#   2]
          +0.069*[#   6]+0.009*[#   4]+0.009*[#   8]+0.003*[#   5]+0.003*[#   9]
          
    |psi|^2 = 0.705
==== e(   9) =     2.98845 eV ==== 
     psi = 0.253*[#   5]+0.253*[#   9]+0.084*[#   4]+0.084*[#   8]
    |psi|^2 = 0.674
==== e(  10) =     3.63722 eV ==== 
     psi = 0.041*[#  10]+0.041*[#   1]+0.020*[#   3]+0.020*[#   7]+0.003*[#   2]
          +0.003*[#   6]+0.003*[#   4]+0.003*[#   8]+0.001*[#   5]+0.001*[#   9]
          
    |psi|^2 = 0.137

 k =   0.5000000000 -0.2886836028  0.0000000000
==== e(   1) =   -11.70222 eV ==== 
     psi = 0.329*[#   6]+0.328*[#   2]+0.073*[#   4]+0.073*[#   8]+0.070*[#  10]
          +0.070*[#   1]+0.024*[#   5]+0.024*[#   9]
    |psi|^2 = 0.992
==== e(   2) =   -10.21851 eV ==== 
     psi = 0.217*[#   2]+0.216*[#   6]+0.129*[#   8]+0.128*[#   4]+0.092*[#   1]
          +0.092*[#  10]+0.043*[#   5]+0.043*[#   9]+0.012*[#   3]+0.012*[#   7]
          
    |psi|^2 = 0.985
==== e(   3) =    -6.94705 eV ==== 
     psi = 0.198*[#   7]+0.197*[#   3]+0.145*[#  10]+0.144*[#   1]+0.110*[#   4]
          +0.110*[#   8]+0.037*[#   5]+0.037*[#   9]
    |psi|^2 = 0.979
==== e(   4) =    -6.10032 eV ==== 
     psi = 0.221*[#   3]+0.221*[#   7]+0.213*[#   1]+0.212*[#  10]+0.038*[#   4]
          +0.038*[#   8]+0.013*[#   5]+0.013*[#   9]+0.007*[#   2]+0.007*[#   6]
          
    |psi|^2 = 0.983
==== e(   5) =    -4.81333 eV ==== 
     psi = 0.371*[#   5]+0.371*[#   9]+0.124*[#   4]+0.124*[#   8]
    |psi|^2 = 0.991
==== e(   6) =    -1.22221 eV ==== 
     psi = 0.156*[#   2]+0.156*[#   6]+0.121*[#   3]+0.121*[#   7]+0.114*[#   4]
          +0.114*[#   8]+0.038*[#   5]+0.038*[#   9]
    |psi|^2 = 0.860
==== e(   7) =     0.27481 eV ==== 
     psi = 0.091*[#   2]+0.091*[#   6]+0.090*[#   4]+0.090*[#   8]+0.078*[#   1]
          +0.078*[#  10]+0.041*[#   3]+0.041*[#   7]+0.030*[#   5]+0.030*[#   9]
          
    |psi|^2 = 0.659
==== e(   8) =     1.30088 eV ==== 
     psi = 0.175*[#  10]+0.175*[#   1]+0.096*[#   7]+0.096*[#   3]+0.069*[#   2]
          +0.069*[#   6]+0.009*[#   4]+0.009*[#   8]+0.003*[#   5]+0.003*[#   9]
          
    |psi|^2 = 0.704
==== e(   9) =     2.98766 eV ==== 
     psi = 0.252*[#   5]+0.252*[#   9]+0.084*[#   4]+0.084*[#   8]
    |psi|^2 = 0.671
==== e(  10) =     3.89815 eV ==== 
     psi = 0.053*[#   1]+0.052*[#  10]+0.042*[#   3]+0.042*[#   7]+0.006*[#   8]
          +0.006*[#   4]+0.002*[#   2]+0.002*[#   5]+0.002*[#   6]+0.002*[#   9]
          
    |psi|^2 = 0.210

 k =   0.0000000000  0.0288683603  0.0000000000
==== e(   1) =   -13.67443 eV ==== 
     psi = 0.418*[#   2]+0.418*[#   6]+0.063*[#   1]+0.063*[#  10]+0.013*[#   3]
          +0.013*[#   7]+0.001*[#   5]+0.001*[#   9]
    |psi|^2 = 0.991
==== e(   2) =    -9.13565 eV ==== 
     psi = 0.207*[#   7]+0.206*[#   3]+0.189*[#  10]+0.188*[#   1]+0.085*[#   2]
          +0.085*[#   6]
    |psi|^2 = 0.959
==== e(   3) =    -5.88338 eV ==== 
     psi = 0.275*[#   1]+0.275*[#  10]+0.194*[#   3]+0.194*[#   7]+0.017*[#   2]
          +0.017*[#   6]
    |psi|^2 = 0.973
==== e(   4) =    -3.48365 eV ==== 
     psi = 0.477*[#   5]+0.477*[#   9]+0.007*[#   2]+0.007*[#   6]+0.005*[#   3]
          +0.005*[#   7]
    |psi|^2 = 0.978
==== e(   5) =    -3.42059 eV ==== 
     psi = 0.489*[#   4]+0.489*[#   8]
    |psi|^2 = 0.978
==== e(   6) =    -1.04595 eV ==== 
     psi = 0.238*[#   3]+0.238*[#   7]+0.180*[#   2]+0.180*[#   6]+0.052*[#   1]
          +0.052*[#  10]+0.011*[#   5]+0.011*[#   9]
    |psi|^2 = 0.963
==== e(   7) =     0.50418 eV ==== 
     psi = 0.447*[#   5]+0.447*[#   9]+0.002*[#   2]+0.002*[#   6]
    |psi|^2 = 0.898
==== e(   8) =     0.53198 eV ==== 
     psi = 0.451*[#   4]+0.451*[#   8]
    |psi|^2 = 0.902
==== e(   9) =     0.76992 eV ==== 
     psi = 0.129*[#   1]+0.129*[#  10]+0.081*[#   2]+0.081*[#   6]+0.002*[#   3]
          +0.002*[#   7]
    |psi|^2 = 0.425
==== e(  10) =     1.19828 eV ==== 
     psi = 0.020*[#  10]+0.020*[#   1]+0.012*[#   3]+0.012*[#   7]+0.002*[#   2]
          +0.002*[#   6]+0.001*[#   5]+0.001*[#   9]
    |psi|^2 = 0.070

 k =  -0.0250000000  0.0433025404  0.0000000000
==== e(   1) =   -13.66087 eV ==== 
     psi = 0.416*[#   2]+0.416*[#   6]+0.063*[#   1]+0.063*[#  10]+0.013*[#   3]
          +0.013*[#   7]+0.003*[#   5]+0.003*[#   9]
    |psi|^2 = 0.991
==== e(   2) =    -9.13199 eV ==== 
     psi = 0.205*[#   7]+0.205*[#   3]+0.189*[#  10]+0.189*[#   1]+0.085*[#   2]
          +0.085*[#   6]
    |psi|^2 = 0.960
==== e(   3) =    -5.88307 eV ==== 
     psi = 0.275*[#   1]+0.275*[#  10]+0.194*[#   3]+0.194*[#   7]+0.017*[#   2]
          +0.017*[#   6]
    |psi|^2 = 0.973
==== e(   4) =    -3.60886 eV ==== 
     psi = 0.349*[#   5]+0.349*[#   9]+0.108*[#   4]+0.108*[#   8]+0.017*[#   2]
          +0.017*[#   6]+0.014*[#   3]+0.014*[#   7]
    |psi|^2 = 0.979
==== e(   5) =    -3.45158 eV ==== 
     psi = 0.372*[#   4]+0.372*[#   8]+0.117*[#   5]+0.117*[#   9]
    |psi|^2 = 0.979
==== e(   6) =    -0.94255 eV ==== 
     psi = 0.231*[#   3]+0.231*[#   7]+0.166*[#   2]+0.166*[#   6]+0.054*[#   1]
          +0.054*[#  10]+0.021*[#   5]+0.021*[#   9]+0.009*[#   4]+0.009*[#   8]
          
    |psi|^2 = 0.960
==== e(   7) =     0.48283 eV ==== 
     psi = 0.315*[#   5]+0.315*[#   9]+0.127*[#   4]+0.127*[#   8]+0.004*[#   2]
          +0.004*[#   6]
    |psi|^2 = 0.894
==== e(   8) =     0.58799 eV ==== 
     psi = 0.318*[#   4]+0.318*[#   8]+0.128*[#   5]+0.128*[#   9]+0.002*[#   1]
          +0.002*[#  10]
    |psi|^2 = 0.897
==== e(   9) =     0.78990 eV ==== 
     psi = 0.125*[#   1]+0.125*[#  10]+0.082*[#   2]+0.082*[#   6]+0.003*[#   4]
          +0.003*[#   8]+0.002*[#   5]+0.002*[#   9]+0.002*[#   3]+0.002*[#   7]
          
    |psi|^2 = 0.428
==== e(  10) =     1.21712 eV ==== 
     psi = 0.019*[#  10]+0.019*[#   1]+0.012*[#   3]+0.012*[#   7]+0.003*[#   5]
          +0.003*[#   9]+0.002*[#   2]+0.002*[#   6]
    |psi|^2 = 0.072

 k =  -0.0500000000  0.0577367206  0.0000000000
==== e(   1) =   -13.63378 eV ==== 
     psi = 0.412*[#   2]+0.412*[#   6]+0.063*[#   1]+0.063*[#  10]+0.012*[#   3]
          +0.012*[#   7]+0.005*[#   5]+0.005*[#   9]+0.004*[#   4]+0.004*[#   8]
          
    |psi|^2 = 0.991
==== e(   2) =    -9.12496 eV ==== 
     psi = 0.203*[#   7]+0.203*[#   3]+0.190*[#  10]+0.190*[#   1]+0.087*[#   2]
          +0.087*[#   6]
    |psi|^2 = 0.960
==== e(   3) =    -5.88258 eV ==== 
     psi = 0.275*[#   1]+0.275*[#  10]+0.194*[#   3]+0.194*[#   7]+0.016*[#   2]
          +0.016*[#   6]+0.001*[#   5]+0.001*[#   9]
    |psi|^2 = 0.974
==== e(   4) =    -3.82916 eV ==== 
     psi = 0.244*[#   5]+0.244*[#   9]+0.188*[#   4]+0.188*[#   8]+0.032*[#   2]
          +0.032*[#   6]+0.026*[#   3]+0.026*[#   7]
    |psi|^2 = 0.980
==== e(   5) =    -3.50918 eV ==== 
     psi = 0.275*[#   4]+0.275*[#   8]+0.215*[#   5]+0.215*[#   9]
    |psi|^2 = 0.979
==== e(   6) =    -0.77664 eV ==== 
     psi = 0.220*[#   3]+0.220*[#   7]+0.144*[#   2]+0.144*[#   6]+0.058*[#   1]
          +0.058*[#  10]+0.030*[#   4]+0.030*[#   8]+0.026*[#   5]+0.026*[#   9]
          
    |psi|^2 = 0.956
==== e(   7) =     0.45401 eV ==== 
     psi = 0.242*[#   5]+0.242*[#   9]+0.186*[#   4]+0.186*[#   8]+0.010*[#   2]
          +0.010*[#   6]+0.003*[#   1]+0.003*[#  10]+0.001*[#   3]+0.001*[#   7]
          
    |psi|^2 = 0.885
==== e(   8) =     0.69019 eV ==== 
     psi = 0.224*[#   4]+0.224*[#   8]+0.189*[#   5]+0.189*[#   9]+0.015*[#   1]
          +0.015*[#  10]+0.003*[#   2]+0.003*[#   6]+0.003*[#   3]+0.003*[#   7]
          
    |psi|^2 = 0.869
==== e(   9) =     0.83742 eV ==== 
     psi = 0.107*[#   1]+0.107*[#  10]+0.082*[#   2]+0.082*[#   6]+0.026*[#   4]
          +0.026*[#   8]+0.012*[#   5]+0.011*[#   9]
    |psi|^2 = 0.454
==== e(  10) =     1.25253 eV ==== 
     psi = 0.019*[#  10]+0.019*[#   1]+0.013*[#   3]+0.013*[#   7]+0.003*[#   5]
          +0.003*[#   9]+0.003*[#   4]+0.003*[#   8]+0.001*[#   2]+0.001*[#   6]
          
    |psi|^2 = 0.078

 k =  -0.0750000000  0.0721709007  0.0000000000
==== e(   1) =   -13.59323 eV ==== 
     psi = 0.407*[#   2]+0.407*[#   6]+0.062*[#   1]+0.062*[#  10]+0.012*[#   3]
          +0.012*[#   7]+0.008*[#   4]+0.008*[#   8]+0.007*[#   5]+0.007*[#   9]
          
    |psi|^2 = 0.991
==== e(   2) =    -9.11534 eV ==== 
     psi = 0.200*[#   7]+0.199*[#   3]+0.191*[#  10]+0.190*[#   1]+0.090*[#   2]
          +0.089*[#   6]
    |psi|^2 = 0.961
==== e(   3) =    -5.88235 eV ==== 
     psi = 0.275*[#   1]+0.275*[#  10]+0.193*[#   3]+0.193*[#   7]+0.015*[#   2]
          +0.015*[#   6]+0.002*[#   4]+0.002*[#   8]+0.002*[#   5]+0.002*[#   9]
          
    |psi|^2 = 0.975
==== e(   4) =    -4.10785 eV ==== 
     psi = 0.220*[#   4]+0.220*[#   8]+0.187*[#   5]+0.187*[#   9]+0.046*[#   2]
          +0.046*[#   6]+0.038*[#   3]+0.038*[#   7]
    |psi|^2 = 0.981
==== e(   5) =    -3.58822 eV ==== 
     psi = 0.267*[#   5]+0.267*[#   9]+0.222*[#   4]+0.222*[#   8]
    |psi|^2 = 0.980
==== e(   6) =    -0.60671 eV ==== 
     psi = 0.205*[#   3]+0.205*[#   7]+0.121*[#   2]+0.120*[#   6]+0.063*[#   4]
          +0.063*[#   8]+0.060*[#   1]+0.060*[#  10]+0.027*[#   5]+0.027*[#   9]
          
    |psi|^2 = 0.950
==== e(   7) =     0.44312 eV ==== 
     psi = 0.201*[#   5]+0.201*[#   9]+0.195*[#   4]+0.195*[#   8]+0.016*[#   2]
          +0.016*[#   6]+0.014*[#   1]+0.014*[#  10]+0.010*[#   3]+0.010*[#   7]
          
    |psi|^2 = 0.873
==== e(   8) =     0.81178 eV ==== 
     psi = 0.168*[#   5]+0.168*[#   9]+0.111*[#   4]+0.111*[#   8]+0.058*[#   1]
          +0.058*[#  10]+0.026*[#   2]+0.026*[#   6]+0.004*[#   3]+0.004*[#   7]
          
    |psi|^2 = 0.733
==== e(   9) =     0.93666 eV ==== 
     psi = 0.105*[#   4]+0.105*[#   8]+0.070*[#   5]+0.070*[#   9]+0.064*[#   2]
          +0.064*[#   6]+0.055*[#   1]+0.054*[#  10]
    |psi|^2 = 0.589
==== e(  10) =     1.30222 eV ==== 
     psi = 0.019*[#  10]+0.019*[#   1]+0.014*[#   3]+0.014*[#   7]+0.006*[#   4]
          +0.006*[#   8]+0.003*[#   5]+0.003*[#   9]+0.001*[#   2]+0.001*[#   6]
          
    |psi|^2 = 0.086

 k =  -0.1000000000  0.0866050808  0.0000000000
==== e(   1) =   -13.53933 eV ==== 
     psi = 0.400*[#   2]+0.400*[#   6]+0.061*[#   1]+0.061*[#  10]+0.014*[#   4]
          +0.014*[#   8]+0.011*[#   3]+0.011*[#   7]+0.010*[#   5]+0.010*[#   9]
          
    |psi|^2 = 0.991
==== e(   2) =    -9.10418 eV ==== 
     psi = 0.195*[#   7]+0.194*[#   3]+0.192*[#  10]+0.192*[#   1]+0.093*[#   2]
          +0.093*[#   6]+0.001*[#   4]+0.001*[#   8]
    |psi|^2 = 0.962
==== e(   3) =    -5.88287 eV ==== 
     psi = 0.275*[#   1]+0.275*[#  10]+0.193*[#   3]+0.193*[#   7]+0.014*[#   2]
          +0.014*[#   6]+0.003*[#   4]+0.003*[#   8]+0.002*[#   5]+0.003*[#   9]
          
    |psi|^2 = 0.975
==== e(   4) =    -4.41705 eV ==== 
     psi = 0.233*[#   4]+0.233*[#   8]+0.153*[#   5]+0.153*[#   9]+0.056*[#   2]
          +0.056*[#   6]+0.049*[#   3]+0.049*[#   7]
    |psi|^2 = 0.982
==== e(   5) =    -3.68348 eV ==== 
     psi = 0.299*[#   5]+0.299*[#   9]+0.191*[#   4]+0.191*[#   8]
    |psi|^2 = 0.981
==== e(   6) =    -0.49134 eV ==== 
     psi = 0.179*[#   3]+0.179*[#   7]+0.106*[#   4]+0.106*[#   8]+0.100*[#   2]
          +0.100*[#   6]+0.055*[#   1]+0.055*[#  10]+0.031*[#   5]+0.031*[#   9]
          
    |psi|^2 = 0.942
==== e(   7) =     0.48212 eV ==== 
     psi = 0.170*[#   4]+0.170*[#   8]+0.164*[#   5]+0.164*[#   9]+0.042*[#   1]
          +0.041*[#  10]+0.031*[#   3]+0.031*[#   7]+0.020*[#   2]+0.020*[#   6]
          
    |psi|^2 = 0.854
==== e(   8) =     0.92590 eV ==== 
     psi = 0.118*[#   5]+0.118*[#   9]+0.081*[#   1]+0.081*[#  10]+0.058*[#   2]
          +0.058*[#   6]+0.039*[#   4]+0.039*[#   8]+0.001*[#   3]+0.001*[#   7]
          
    |psi|^2 = 0.593
==== e(   9) =     1.11028 eV ==== 
     psi = 0.157*[#   4]+0.157*[#   8]+0.150*[#   5]+0.150*[#   9]+0.037*[#   2]
          +0.037*[#   6]+0.014*[#   1]+0.014*[#  10]+0.005*[#   3]+0.005*[#   7]
          
    |psi|^2 = 0.727
==== e(  10) =     1.36625 eV ==== 
     psi = 0.019*[#  10]+0.019*[#   1]+0.017*[#   3]+0.018*[#   7]+0.012*[#   4]
          +0.012*[#   8]+0.003*[#   5]+0.003*[#   9]+0.002*[#   2]+0.002*[#   6]
          
    |psi|^2 = 0.106

 k =  -0.1250000000  0.1010392610  0.0000000000
==== e(   1) =   -13.47226 eV ==== 
     psi = 0.392*[#   2]+0.393*[#   6]+0.060*[#   1]+0.060*[#  10]+0.020*[#   4]
          +0.020*[#   8]+0.013*[#   5]+0.013*[#   9]+0.010*[#   3]+0.010*[#   7]
          
    |psi|^2 = 0.991
==== e(   2) =    -9.09313 eV ==== 
     psi = 0.193*[#  10]+0.193*[#   1]+0.188*[#   7]+0.188*[#   3]+0.098*[#   2]
          +0.098*[#   6]+0.002*[#   4]+0.002*[#   8]+0.001*[#   5]+0.001*[#   9]
          
    |psi|^2 = 0.964
==== e(   3) =    -5.88512 eV ==== 
     psi = 0.275*[#   1]+0.275*[#  10]+0.192*[#   3]+0.192*[#   7]+0.013*[#   2]
          +0.013*[#   6]+0.006*[#   4]+0.006*[#   8]+0.003*[#   5]+0.003*[#   9]
          
    |psi|^2 = 0.976
==== e(   4) =    -4.73837 eV ==== 
     psi = 0.237*[#   4]+0.237*[#   8]+0.132*[#   5]+0.132*[#   9]+0.063*[#   2]
          +0.063*[#   6]+0.059*[#   3]+0.059*[#   7]
    |psi|^2 = 0.982
==== e(   5) =    -3.78962 eV ==== 
     psi = 0.319*[#   5]+0.319*[#   9]+0.171*[#   4]+0.171*[#   8]
    |psi|^2 = 0.983
==== e(   6) =    -0.46104 eV ==== 
     psi = 0.148*[#   4]+0.148*[#   8]+0.146*[#   3]+0.146*[#   7]+0.089*[#   2]
          +0.089*[#   6]+0.044*[#   1]+0.044*[#  10]+0.040*[#   5]+0.040*[#   9]
          
    |psi|^2 = 0.934
==== e(   7) =     0.58001 eV ==== 
     psi = 0.129*[#   4]+0.129*[#   8]+0.119*[#   5]+0.119*[#   9]+0.085*[#   1]
          +0.084*[#  10]+0.059*[#   3]+0.059*[#   7]+0.020*[#   2]+0.020*[#   6]
          
    |psi|^2 = 0.822
==== e(   8) =     1.05480 eV ==== 
     psi = 0.105*[#   5]+0.105*[#   9]+0.072*[#   2]+0.072*[#   6]+0.066*[#   1]
          +0.066*[#  10]+0.029*[#   4]+0.029*[#   8]
    |psi|^2 = 0.545
==== e(   9) =     1.31997 eV ==== 
     psi = 0.187*[#   5]+0.187*[#   9]+0.131*[#   4]+0.131*[#   8]+0.019*[#   2]
          +0.019*[#   6]+0.010*[#   3]+0.010*[#   7]+0.007*[#   1]+0.007*[#  10]
          
    |psi|^2 = 0.706
==== e(  10) =     1.45615 eV ==== 
     psi = 0.043*[#   4]+0.043*[#   8]+0.023*[#   3]+0.023*[#   7]+0.017*[#  10]
          +0.016*[#   1]+0.008*[#   5]+0.008*[#   9]+0.007*[#   2]+0.007*[#   6]
          
    |psi|^2 = 0.194

 k =  -0.1500000000  0.1154734411  0.0000000000
==== e(   1) =   -13.39222 eV ==== 
     psi = 0.384*[#   2]+0.384*[#   6]+0.059*[#   1]+0.059*[#  10]+0.027*[#   4]
          +0.027*[#   8]+0.016*[#   5]+0.016*[#   9]+0.009*[#   3]+0.009*[#   7]
          
    |psi|^2 = 0.991
==== e(   2) =    -9.08443 eV ==== 
     psi = 0.194*[#  10]+0.194*[#   1]+0.180*[#   7]+0.180*[#   3]+0.104*[#   2]
          +0.104*[#   6]+0.004*[#   4]+0.004*[#   8]+0.002*[#   5]+0.002*[#   9]
          
    |psi|^2 = 0.966
==== e(   3) =    -5.89062 eV ==== 
     psi = 0.273*[#   1]+0.273*[#  10]+0.190*[#   3]+0.190*[#   7]+0.011*[#   2]
          +0.011*[#   6]+0.009*[#   4]+0.009*[#   8]+0.005*[#   5]+0.005*[#   9]
          
    |psi|^2 = 0.977
==== e(   4) =    -5.05876 eV ==== 
     psi = 0.235*[#   4]+0.235*[#   8]+0.116*[#   5]+0.116*[#   9]+0.070*[#   3]
          +0.070*[#   7]+0.068*[#   2]+0.068*[#   6]+0.002*[#   1]+0.002*[#  10]
          
    |psi|^2 = 0.982
==== e(   5) =    -3.90184 eV ==== 
     psi = 0.333*[#   5]+0.333*[#   9]+0.158*[#   4]+0.158*[#   8]
    |psi|^2 = 0.984
==== e(   6) =    -0.49884 eV ==== 
     psi = 0.176*[#   4]+0.176*[#   8]+0.120*[#   3]+0.120*[#   7]+0.087*[#   2]
          +0.087*[#   6]+0.049*[#   5]+0.049*[#   9]+0.033*[#   1]+0.033*[#  10]
          
    |psi|^2 = 0.928
==== e(   7) =     0.70553 eV ==== 
     psi = 0.128*[#   1]+0.128*[#  10]+0.090*[#   4]+0.090*[#   8]+0.077*[#   3]
          +0.077*[#   7]+0.076*[#   5]+0.076*[#   9]+0.019*[#   2]+0.019*[#   6]
          
    |psi|^2 = 0.780
==== e(   8) =     1.20523 eV ==== 
     psi = 0.089*[#   5]+0.089*[#   9]+0.075*[#   2]+0.075*[#   6]+0.048*[#   1]
          +0.048*[#  10]+0.032*[#   4]+0.032*[#   8]+0.006*[#   3]+0.006*[#   7]
          
    |psi|^2 = 0.501
==== e(   9) =     1.48636 eV ==== 
     psi = 0.146*[#   5]+0.146*[#   9]+0.043*[#   4]+0.043*[#   8]+0.017*[#   7]
          +0.017*[#   3]+0.016*[#  10]+0.016*[#   1]
    |psi|^2 = 0.444
==== e(  10) =     1.63115 eV ==== 
     psi = 0.126*[#   4]+0.126*[#   8]+0.088*[#   5]+0.088*[#   9]+0.028*[#   3]
          +0.027*[#   7]+0.016*[#   2]+0.016*[#   6]+0.004*[#   1]+0.004*[#  10]
          
    |psi|^2 = 0.524

 k =  -0.1750000000  0.1299076212  0.0000000000
==== e(   1) =   -13.29951 eV ==== 
     psi = 0.376*[#   2]+0.376*[#   6]+0.058*[#   1]+0.058*[#  10]+0.034*[#   4]
          +0.034*[#   8]+0.019*[#   5]+0.019*[#   9]+0.008*[#   3]+0.008*[#   7]
          
    |psi|^2 = 0.991
==== e(   2) =    -9.08098 eV ==== 
     psi = 0.194*[#  10]+0.194*[#   1]+0.169*[#   7]+0.169*[#   3]+0.112*[#   2]
          +0.111*[#   6]+0.006*[#   4]+0.006*[#   8]+0.003*[#   5]+0.003*[#   9]
          
    |psi|^2 = 0.968
==== e(   3) =    -5.90295 eV ==== 
     psi = 0.268*[#   1]+0.268*[#  10]+0.187*[#   3]+0.187*[#   7]+0.017*[#   4]
          +0.017*[#   8]+0.010*[#   2]+0.010*[#   6]+0.008*[#   5]+0.008*[#   9]
          
    |psi|^2 = 0.979
==== e(   4) =    -5.36628 eV ==== 
     psi = 0.227*[#   4]+0.227*[#   8]+0.103*[#   5]+0.103*[#   9]+0.084*[#   3]
          +0.084*[#   7]+0.069*[#   2]+0.069*[#   6]+0.008*[#   1]+0.008*[#  10]
          
    |psi|^2 = 0.982
==== e(   5) =    -4.01609 eV ==== 
     psi = 0.343*[#   5]+0.343*[#   9]+0.148*[#   4]+0.148*[#   8]
    |psi|^2 = 0.985
==== e(   6) =    -0.57273 eV ==== 
     psi = 0.188*[#   4]+0.188*[#   8]+0.104*[#   3]+0.104*[#   7]+0.091*[#   2]
          +0.091*[#   6]+0.053*[#   5]+0.053*[#   9]+0.025*[#   1]+0.025*[#  10]
          
    |psi|^2 = 0.923
==== e(   7) =     0.82799 eV ==== 
     psi = 0.158*[#   1]+0.158*[#  10]+0.083*[#   3]+0.083*[#   7]+0.062*[#   4]
          +0.062*[#   8]+0.047*[#   5]+0.047*[#   9]+0.021*[#   2]+0.021*[#   6]
          
    |psi|^2 = 0.744
==== e(   8) =     1.33742 eV ==== 
     psi = 0.065*[#   2]+0.065*[#   6]+0.048*[#   5]+0.048*[#   9]+0.047*[#  10]
          +0.047*[#   1]+0.027*[#   4]+0.027*[#   8]+0.018*[#   7]+0.017*[#   3]
          
    |psi|^2 = 0.411
==== e(   9) =     1.63493 eV ==== 
     psi = 0.155*[#   5]+0.154*[#   9]+0.037*[#   8]+0.037*[#   4]+0.024*[#   3]
          +0.024*[#   7]+0.012*[#   1]+0.012*[#  10]+0.004*[#   2]+0.004*[#   6]
          
    |psi|^2 = 0.464
==== e(  10) =     1.86832 eV ==== 
     psi = 0.134*[#   5]+0.134*[#   9]+0.130*[#   4]+0.130*[#   8]+0.029*[#   3]
          +0.029*[#   7]+0.010*[#   2]+0.010*[#   6]+0.003*[#   1]+0.003*[#  10]
          
    |psi|^2 = 0.610

 k =  -0.2000000000  0.1443418014  0.0000000000
==== e(   1) =   -13.19446 eV ==== 
     psi = 0.368*[#   2]+0.368*[#   6]+0.058*[#   1]+0.058*[#  10]+0.041*[#   4]
          +0.041*[#   8]+0.021*[#   5]+0.021*[#   9]+0.007*[#   3]+0.007*[#   7]
          
    |psi|^2 = 0.991
==== e(   2) =    -9.08647 eV ==== 
     psi = 0.194*[#  10]+0.193*[#   1]+0.157*[#   7]+0.156*[#   3]+0.121*[#   2]
          +0.121*[#   6]+0.010*[#   4]+0.010*[#   8]+0.004*[#   5]+0.004*[#   9]
          
    |psi|^2 = 0.971
==== e(   3) =    -5.93546 eV ==== 
     psi = 0.240*[#   1]+0.240*[#  10]+0.173*[#   3]+0.173*[#   7]+0.048*[#   4]
          +0.048*[#   8]+0.018*[#   5]+0.018*[#   9]+0.011*[#   2]+0.011*[#   6]
          
    |psi|^2 = 0.980
==== e(   4) =    -5.64048 eV ==== 
     psi = 0.194*[#   4]+0.194*[#   8]+0.111*[#   3]+0.111*[#   7]+0.084*[#   5]
          +0.084*[#   9]+0.065*[#   2]+0.065*[#   6]+0.037*[#   1]+0.037*[#  10]
          
    |psi|^2 = 0.980
==== e(   5) =    -4.12911 eV ==== 
     psi = 0.350*[#   5]+0.350*[#   9]+0.141*[#   4]+0.141*[#   8]+0.001*[#   2]
          +0.001*[#   6]
    |psi|^2 = 0.986
==== e(   6) =    -0.66082 eV ==== 
     psi = 0.192*[#   4]+0.192*[#   8]+0.098*[#   2]+0.098*[#   6]+0.096*[#   3]
          +0.096*[#   7]+0.054*[#   5]+0.054*[#   9]+0.020*[#   1]+0.020*[#  10]
          
    |psi|^2 = 0.919
==== e(   7) =     0.93838 eV ==== 
     psi = 0.175*[#   1]+0.175*[#  10]+0.086*[#   3]+0.086*[#   7]+0.046*[#   4]
          +0.046*[#   8]+0.031*[#   5]+0.031*[#   9]+0.025*[#   2]+0.025*[#   6]
          
    |psi|^2 = 0.725
==== e(   8) =     1.40039 eV ==== 
     psi = 0.059*[#  10]+0.059*[#   1]+0.057*[#   2]+0.057*[#   6]+0.032*[#   7]
          +0.032*[#   3]+0.019*[#   4]+0.019*[#   8]+0.018*[#   5]+0.018*[#   9]
          
    |psi|^2 = 0.370
==== e(   9) =     1.82444 eV ==== 
     psi = 0.159*[#   5]+0.159*[#   9]+0.042*[#   4]+0.043*[#   8]+0.030*[#   3]
          +0.030*[#   7]+0.007*[#   2]+0.007*[#   6]+0.006*[#   1]+0.006*[#  10]
          
    |psi|^2 = 0.489
==== e(  10) =     2.09937 eV ==== 
     psi = 0.161*[#   9]+0.160*[#   5]+0.112*[#   4]+0.111*[#   8]+0.026*[#   7]
          +0.026*[#   3]+0.006*[#  10]+0.006*[#   1]+0.001*[#   2]+0.002*[#   6]
          
    |psi|^2 = 0.612

 k =  -0.2250000000  0.1587759815  0.0000000000
==== e(   1) =   -13.07760 eV ==== 
     psi = 0.360*[#   2]+0.360*[#   6]+0.057*[#   1]+0.057*[#  10]+0.048*[#   4]
          +0.048*[#   8]+0.024*[#   5]+0.024*[#   9]+0.006*[#   3]+0.006*[#   7]
          
    |psi|^2 = 0.991
==== e(   2) =    -9.10562 eV ==== 
     psi = 0.191*[#  10]+0.191*[#   1]+0.141*[#   7]+0.141*[#   3]+0.133*[#   2]
          +0.132*[#   6]+0.015*[#   4]+0.015*[#   8]+0.006*[#   5]+0.007*[#   9]
          
    |psi|^2 = 0.973
==== e(   3) =    -6.04875 eV ==== 
     psi = 0.154*[#   4]+0.154*[#   8]+0.130*[#   3]+0.130*[#   7]+0.119*[#   1]
          +0.119*[#  10]+0.056*[#   5]+0.056*[#   9]+0.032*[#   2]+0.032*[#   6]
          
    |psi|^2 = 0.982
==== e(   4) =    -5.81436 eV ==== 
     psi = 0.168*[#   3]+0.168*[#   7]+0.160*[#   1]+0.160*[#  10]+0.084*[#   4]
          +0.084*[#   8]+0.039*[#   5]+0.039*[#   9]+0.038*[#   2]+0.038*[#   6]
          
    |psi|^2 = 0.979
==== e(   5) =    -4.23834 eV ==== 
     psi = 0.355*[#   5]+0.355*[#   9]+0.136*[#   4]+0.136*[#   8]+0.001*[#   2]
          +0.001*[#   6]
    |psi|^2 = 0.987
==== e(   6) =    -0.75101 eV ==== 
     psi = 0.190*[#   4]+0.190*[#   8]+0.106*[#   2]+0.106*[#   6]+0.093*[#   3]
          +0.093*[#   7]+0.053*[#   5]+0.053*[#   9]+0.016*[#   1]+0.016*[#  10]
          
    |psi|^2 = 0.915
==== e(   7) =     1.03530 eV ==== 
     psi = 0.180*[#   1]+0.180*[#  10]+0.089*[#   3]+0.089*[#   7]+0.037*[#   4]
          +0.037*[#   8]+0.029*[#   2]+0.029*[#   6]+0.023*[#   9]+0.023*[#   5]
          
    |psi|^2 = 0.716
==== e(   8) =     1.38822 eV ==== 
     psi = 0.077*[#  10]+0.076*[#   1]+0.059*[#   6]+0.058*[#   2]+0.046*[#   7]
          +0.045*[#   3]+0.016*[#   4]+0.016*[#   8]+0.009*[#   9]+0.009*[#   5]
          
    |psi|^2 = 0.411
==== e(   9) =     2.00833 eV ==== 
     psi = 0.115*[#   9]+0.115*[#   5]+0.034*[#   3]+0.034*[#   7]+0.031*[#   4]
          +0.030*[#   8]+0.004*[#   2]+0.004*[#   6]+0.003*[#   1]+0.003*[#  10]
          
    |psi|^2 = 0.372
==== e(  10) =     2.24379 eV ==== 
     psi = 0.047*[#   5]+0.043*[#   9]+0.019*[#   8]+0.013*[#   4]+0.010*[#   2]
          +0.009*[#   6]+0.007*[#   3]+0.006*[#   1]+0.005*[#   7]+0.005*[#  10]
          
    |psi|^2 = 0.163

 k =  -0.2500000000  0.1732101617  0.0000000000
==== e(   1) =   -12.94954 eV ==== 
     psi = 0.352*[#   2]+0.352*[#   6]+0.057*[#   1]+0.057*[#  10]+0.055*[#   4]
          +0.055*[#   8]+0.026*[#   5]+0.026*[#   9]+0.005*[#   3]+0.005*[#   7]
          
    |psi|^2 = 0.991
==== e(   2) =    -9.14355 eV ==== 
     psi = 0.187*[#  10]+0.186*[#   1]+0.146*[#   2]+0.146*[#   6]+0.123*[#   7]
          +0.123*[#   3]+0.023*[#   4]+0.023*[#   8]+0.009*[#   5]+0.009*[#   9]
          
    |psi|^2 = 0.976
==== e(   3) =    -6.25226 eV ==== 
     psi = 0.199*[#   4]+0.199*[#   8]+0.123*[#   3]+0.123*[#   7]+0.071*[#   5]
          +0.071*[#   9]+0.055*[#   1]+0.055*[#  10]+0.042*[#   2]+0.042*[#   6]
          
    |psi|^2 = 0.980
==== e(   4) =    -5.87202 eV ==== 
     psi = 0.229*[#   1]+0.228*[#  10]+0.192*[#   3]+0.192*[#   7]+0.032*[#   4]
          +0.032*[#   8]+0.020*[#   2]+0.020*[#   6]+0.018*[#   5]+0.018*[#   9]
          
    |psi|^2 = 0.980
==== e(   5) =    -4.34180 eV ==== 
     psi = 0.359*[#   5]+0.359*[#   9]+0.133*[#   4]+0.133*[#   8]+0.001*[#   2]
          +0.001*[#   6]
    |psi|^2 = 0.988
==== e(   6) =    -0.83667 eV ==== 
     psi = 0.185*[#   4]+0.185*[#   8]+0.114*[#   2]+0.114*[#   6]+0.092*[#   3]
          +0.092*[#   7]+0.051*[#   5]+0.051*[#   9]+0.013*[#   1]+0.013*[#  10]
          
    |psi|^2 = 0.911
==== e(   7) =     1.11282 eV ==== 
     psi = 0.166*[#   1]+0.165*[#  10]+0.092*[#   3]+0.092*[#   7]+0.036*[#   8]
          +0.036*[#   4]+0.031*[#   2]+0.031*[#   6]+0.020*[#   5]+0.020*[#   9]
          
    |psi|^2 = 0.689
==== e(   8) =     1.31496 eV ==== 
     psi = 0.105*[#  10]+0.104*[#   1]+0.068*[#   6]+0.068*[#   2]+0.056*[#   7]
          +0.056*[#   3]+0.014*[#   4]+0.014*[#   8]+0.007*[#   5]+0.006*[#   9]
          
    |psi|^2 = 0.498
==== e(   9) =     2.13242 eV ==== 
     psi = 0.058*[#   5]+0.057*[#   9]+0.024*[#   3]+0.024*[#   7]+0.012*[#   8]
          +0.012*[#   4]
    |psi|^2 = 0.189
==== e(  10) =     2.37849 eV ==== 
     psi = 0.077*[#   9]+0.075*[#   5]+0.027*[#   4]+0.024*[#   8]+0.009*[#   2]
          +0.009*[#   6]+0.002*[#   7]+0.001*[#   3]
    |psi|^2 = 0.226

 k =  -0.2750000000  0.1876443418  0.0000000000
==== e(   1) =   -12.81112 eV ==== 
     psi = 0.346*[#   2]+0.346*[#   6]+0.060*[#   4]+0.060*[#   8]+0.057*[#   1]
          +0.057*[#  10]+0.028*[#   5]+0.028*[#   9]+0.004*[#   3]+0.004*[#   7]
          
    |psi|^2 = 0.991
==== e(   2) =    -9.20509 eV ==== 
     psi = 0.179*[#  10]+0.179*[#   1]+0.161*[#   2]+0.160*[#   6]+0.104*[#   7]
          +0.104*[#   3]+0.034*[#   4]+0.034*[#   8]+0.013*[#   5]+0.013*[#   9]
          
    |psi|^2 = 0.979
==== e(   3) =    -6.45145 eV ==== 
     psi = 0.198*[#   4]+0.198*[#   8]+0.135*[#   3]+0.136*[#   7]+0.069*[#   5]
          +0.069*[#   9]+0.049*[#   1]+0.049*[#  10]+0.038*[#   2]+0.038*[#   6]
          
    |psi|^2 = 0.979
==== e(   4) =    -5.90203 eV ==== 
     psi = 0.241*[#   1]+0.241*[#  10]+0.198*[#   3]+0.197*[#   7]+0.023*[#   4]
          +0.023*[#   8]+0.014*[#   2]+0.014*[#   5]+0.014*[#   6]+0.014*[#   9]
          
    |psi|^2 = 0.981
==== e(   5) =    -4.43796 eV ==== 
     psi = 0.361*[#   5]+0.361*[#   9]+0.130*[#   4]+0.130*[#   8]+0.001*[#   2]
          +0.001*[#   6]+0.001*[#   3]+0.001*[#   7]
    |psi|^2 = 0.988
==== e(   6) =    -0.91404 eV ==== 
     psi = 0.179*[#   4]+0.179*[#   8]+0.121*[#   2]+0.121*[#   6]+0.093*[#   3]
          +0.093*[#   7]+0.048*[#   5]+0.048*[#   9]+0.011*[#   1]+0.011*[#  10]
          
    |psi|^2 = 0.906
==== e(   7) =     1.12243 eV ==== 
     psi = 0.077*[#   1]+0.077*[#   3]+0.077*[#   7]+0.076*[#  10]+0.049*[#   4]
          +0.049*[#   8]+0.039*[#   2]+0.039*[#   6]+0.021*[#   9]+0.021*[#   5]
          
    |psi|^2 = 0.526
==== e(   8) =     1.24682 eV ==== 
     psi = 0.199*[#  10]+0.198*[#   1]+0.079*[#   7]+0.078*[#   3]+0.072*[#   6]
          +0.072*[#   2]+0.005*[#   5]+0.005*[#   9]+0.002*[#   4]+0.002*[#   8]
          
    |psi|^2 = 0.712
==== e(   9) =     2.22941 eV ==== 
     psi = 0.032*[#   9]+0.032*[#   5]+0.011*[#   3]+0.011*[#   7]+0.005*[#   4]
          +0.005*[#   8]
    |psi|^2 = 0.098
==== e(  10) =     2.55020 eV ==== 
     psi = 0.055*[#   5]+0.052*[#   9]+0.019*[#   8]+0.016*[#   4]+0.006*[#   2]
          +0.006*[#   6]+0.004*[#   3]+0.004*[#   7]
    |psi|^2 = 0.162

 k =  -0.3000000000  0.2020785219  0.0000000000
==== e(   1) =   -12.66352 eV ==== 
     psi = 0.340*[#   6]+0.340*[#   2]+0.065*[#   4]+0.065*[#   8]+0.058*[#   1]
          +0.058*[#  10]+0.029*[#   5]+0.029*[#   9]+0.003*[#   3]+0.003*[#   7]
          
    |psi|^2 = 0.991
==== e(   2) =    -9.29370 eV ==== 
     psi = 0.175*[#   2]+0.175*[#   6]+0.168*[#   1]+0.168*[#  10]+0.083*[#   3]
          +0.084*[#   7]+0.047*[#   4]+0.047*[#   8]+0.017*[#   5]+0.017*[#   9]
          
    |psi|^2 = 0.982
==== e(   3) =    -6.61755 eV ==== 
     psi = 0.187*[#   4]+0.187*[#   8]+0.151*[#   7]+0.151*[#   3]+0.063*[#   5]
          +0.063*[#   9]+0.057*[#   1]+0.057*[#  10]+0.030*[#   2]+0.030*[#   6]
          
    |psi|^2 = 0.977
==== e(   4) =    -5.92888 eV ==== 
     psi = 0.242*[#   1]+0.242*[#  10]+0.201*[#   3]+0.201*[#   7]+0.022*[#   4]
          +0.022*[#   8]+0.014*[#   5]+0.014*[#   9]+0.012*[#   2]+0.012*[#   6]
          
    |psi|^2 = 0.981
==== e(   5) =    -4.52563 eV ==== 
     psi = 0.363*[#   5]+0.363*[#   9]+0.128*[#   4]+0.128*[#   8]+0.001*[#   2]
          +0.001*[#   6]+0.001*[#   3]+0.001*[#   7]
    |psi|^2 = 0.989
==== e(   6) =    -0.98110 eV ==== 
     psi = 0.170*[#   4]+0.170*[#   8]+0.128*[#   2]+0.128*[#   6]+0.096*[#   3]
          +0.096*[#   7]+0.046*[#   5]+0.046*[#   9]+0.010*[#   1]+0.010*[#  10]
          
    |psi|^2 = 0.900
==== e(   7) =     1.00056 eV ==== 
     psi = 0.063*[#   3]+0.063*[#   7]+0.060*[#   2]+0.060*[#   1]+0.060*[#   6]
          +0.060*[#  10]+0.050*[#   8]+0.049*[#   4]+0.019*[#   5]+0.019*[#   9]
          
    |psi|^2 = 0.504
==== e(   8) =     1.26910 eV ==== 
     psi = 0.215*[#  10]+0.214*[#   1]+0.095*[#   7]+0.095*[#   3]+0.062*[#   6]
          +0.062*[#   2]+0.008*[#   5]+0.008*[#   9]+0.006*[#   4]+0.006*[#   8]
          
    |psi|^2 = 0.770
==== e(   9) =     2.33962 eV ==== 
     psi = 0.026*[#   5]+0.026*[#   9]+0.005*[#   1]+0.005*[#  10]+0.004*[#   3]
          +0.004*[#   4]+0.004*[#   7]+0.004*[#   8]
    |psi|^2 = 0.079
==== e(  10) =     2.73981 eV ==== 
     psi = 0.086*[#   9]+0.085*[#   5]+0.026*[#   4]+0.025*[#   8]+0.004*[#   2]
          +0.004*[#   6]+0.002*[#   3]+0.002*[#   7]
    |psi|^2 = 0.235

 k =  -0.3250000000  0.2165127021  0.0000000000
==== e(   1) =   -12.50839 eV ==== 
     psi = 0.335*[#   6]+0.334*[#   2]+0.069*[#   4]+0.069*[#   8]+0.059*[#   1]
          +0.059*[#  10]+0.030*[#   5]+0.030*[#   9]+0.003*[#   3]+0.003*[#   7]
          
    |psi|^2 = 0.991
==== e(   2) =    -9.40975 eV ==== 
     psi = 0.189*[#   2]+0.189*[#   6]+0.155*[#   1]+0.155*[#  10]+0.065*[#   3]
          +0.065*[#   7]+0.061*[#   4]+0.061*[#   8]+0.022*[#   5]+0.022*[#   9]
          
    |psi|^2 = 0.984
==== e(   3) =    -6.74461 eV ==== 
     psi = 0.173*[#   4]+0.173*[#   8]+0.166*[#   7]+0.166*[#   3]+0.071*[#   1]
          +0.071*[#  10]+0.057*[#   5]+0.057*[#   9]+0.022*[#   2]+0.022*[#   6]
          
    |psi|^2 = 0.977
==== e(   4) =    -5.95686 eV ==== 
     psi = 0.240*[#   1]+0.239*[#  10]+0.204*[#   3]+0.204*[#   7]+0.023*[#   4]
          +0.023*[#   8]+0.014*[#   5]+0.014*[#   9]+0.010*[#   2]+0.010*[#   6]
          
    |psi|^2 = 0.982
==== e(   5) =    -4.60391 eV ==== 
     psi = 0.364*[#   5]+0.365*[#   9]+0.127*[#   4]+0.127*[#   8]+0.001*[#   2]
          +0.001*[#   3]+0.001*[#   6]+0.001*[#   7]
    |psi|^2 = 0.989
==== e(   6) =    -1.03694 eV ==== 
     psi = 0.161*[#   4]+0.161*[#   8]+0.135*[#   2]+0.135*[#   6]+0.099*[#   3]
          +0.099*[#   7]+0.043*[#   5]+0.043*[#   9]+0.008*[#   1]+0.008*[#  10]
          
    |psi|^2 = 0.894
==== e(   7) =     0.85027 eV ==== 
     psi = 0.070*[#   2]+0.069*[#   6]+0.065*[#   1]+0.064*[#  10]+0.059*[#   3]
          +0.059*[#   7]+0.054*[#   4]+0.054*[#   8]+0.021*[#   5]+0.021*[#   9]
          
    |psi|^2 = 0.535
==== e(   8) =     1.29703 eV ==== 
     psi = 0.206*[#  10]+0.206*[#   1]+0.098*[#   7]+0.098*[#   3]+0.062*[#   6]
          +0.062*[#   2]+0.008*[#   5]+0.008*[#   9]+0.007*[#   4]+0.007*[#   8]
          
    |psi|^2 = 0.762
==== e(   9) =     2.47184 eV ==== 
     psi = 0.027*[#   9]+0.027*[#   5]+0.011*[#   1]+0.011*[#  10]+0.005*[#   4]
          +0.005*[#   8]+0.002*[#   3]+0.002*[#   7]
    |psi|^2 = 0.093
==== e(  10) =     2.90293 eV ==== 
     psi = 0.262*[#   5]+0.261*[#   9]+0.097*[#   8]+0.095*[#   4]+0.001*[#   2]
          +0.001*[#   6]
    |psi|^2 = 0.719

 k =  -0.3500000000  0.2309468822  0.0000000000
==== e(   1) =   -12.34815 eV ==== 
     psi = 0.330*[#   6]+0.330*[#   2]+0.072*[#   4]+0.072*[#   8]+0.060*[#   1]
          +0.060*[#  10]+0.031*[#   5]+0.031*[#   9]+0.002*[#   3]+0.002*[#   7]
          
    |psi|^2 = 0.991
==== e(   2) =    -9.54967 eV ==== 
     psi = 0.201*[#   2]+0.200*[#   6]+0.141*[#   1]+0.141*[#  10]+0.076*[#   4]
          +0.076*[#   8]+0.048*[#   3]+0.048*[#   7]+0.027*[#   5]+0.027*[#   9]
          
    |psi|^2 = 0.985
==== e(   3) =    -6.83390 eV ==== 
     psi = 0.178*[#   7]+0.178*[#   3]+0.158*[#   4]+0.158*[#   8]+0.087*[#  10]
          +0.087*[#   1]+0.051*[#   5]+0.051*[#   9]+0.014*[#   2]+0.014*[#   6]
          
    |psi|^2 = 0.976
==== e(   4) =    -5.98647 eV ==== 
     psi = 0.235*[#   1]+0.235*[#  10]+0.207*[#   3]+0.207*[#   7]+0.025*[#   4]
          +0.025*[#   8]+0.015*[#   5]+0.015*[#   9]+0.009*[#   2]+0.009*[#   6]
          
    |psi|^2 = 0.982
==== e(   5) =    -4.67210 eV ==== 
     psi = 0.365*[#   5]+0.365*[#   9]+0.126*[#   4]+0.126*[#   8]+0.002*[#   3]
          +0.002*[#   7]+0.001*[#   2]+0.001*[#   6]
    |psi|^2 = 0.990
==== e(   6) =    -1.08153 eV ==== 
     psi = 0.152*[#   4]+0.152*[#   8]+0.140*[#   2]+0.140*[#   6]+0.103*[#   3]
          +0.103*[#   7]+0.041*[#   5]+0.041*[#   9]+0.007*[#   1]+0.007*[#  10]
          
    |psi|^2 = 0.887
==== e(   7) =     0.70402 eV ==== 
     psi = 0.076*[#   2]+0.075*[#   6]+0.068*[#   1]+0.068*[#  10]+0.061*[#   4]
          +0.061*[#   8]+0.055*[#   3]+0.055*[#   7]+0.023*[#   5]+0.023*[#   9]
          
    |psi|^2 = 0.565
==== e(   8) =     1.31249 eV ==== 
     psi = 0.197*[#  10]+0.197*[#   1]+0.099*[#   3]+0.099*[#   7]+0.064*[#   6]
          +0.064*[#   2]+0.007*[#   4]+0.007*[#   5]+0.007*[#   8]+0.007*[#   9]
          
    |psi|^2 = 0.749
==== e(   9) =     2.62306 eV ==== 
     psi = 0.040*[#   5]+0.040*[#   9]+0.019*[#   1]+0.019*[#  10]+0.009*[#   4]
          +0.009*[#   8]+0.003*[#   3]+0.003*[#   7]+0.001*[#   2]+0.001*[#   6]
          
    |psi|^2 = 0.144
==== e(  10) =     2.96906 eV ==== 
     psi = 0.239*[#   5]+0.239*[#   9]+0.091*[#   4]+0.091*[#   8]
    |psi|^2 = 0.662

 k =  -0.3750000000  0.2453810624  0.0000000000
==== e(   1) =   -12.18650 eV ==== 
     psi = 0.327*[#   6]+0.327*[#   2]+0.074*[#   4]+0.074*[#   8]+0.062*[#   1]
          +0.062*[#  10]+0.031*[#   5]+0.031*[#   9]+0.001*[#   3]+0.001*[#   7]
          
    |psi|^2 = 0.991
==== e(   2) =    -9.70572 eV ==== 
     psi = 0.209*[#   2]+0.209*[#   6]+0.127*[#   1]+0.128*[#  10]+0.091*[#   4]
          +0.091*[#   8]+0.035*[#   3]+0.035*[#   7]+0.031*[#   5]+0.031*[#   9]
          
    |psi|^2 = 0.986
==== e(   3) =    -6.89071 eV ==== 
     psi = 0.187*[#   7]+0.187*[#   3]+0.144*[#   4]+0.144*[#   8]+0.104*[#  10]
          +0.104*[#   1]+0.045*[#   5]+0.045*[#   9]+0.009*[#   2]+0.009*[#   6]
          
    |psi|^2 = 0.977
==== e(   4) =    -6.01665 eV ==== 
     psi = 0.230*[#   1]+0.230*[#  10]+0.211*[#   3]+0.210*[#   7]+0.028*[#   4]
          +0.028*[#   8]+0.015*[#   5]+0.015*[#   9]+0.008*[#   2]+0.008*[#   6]
          
    |psi|^2 = 0.983
==== e(   5) =    -4.72966 eV ==== 
     psi = 0.366*[#   5]+0.366*[#   9]+0.126*[#   4]+0.126*[#   8]+0.002*[#   3]
          +0.002*[#   7]+0.001*[#   2]+0.001*[#   6]
    |psi|^2 = 0.990
==== e(   6) =    -1.11547 eV ==== 
     psi = 0.145*[#   2]+0.145*[#   6]+0.143*[#   4]+0.143*[#   8]+0.107*[#   3]
          +0.108*[#   7]+0.040*[#   5]+0.040*[#   9]+0.005*[#   1]+0.005*[#  10]
          
    |psi|^2 = 0.880
==== e(   7) =     0.57210 eV ==== 
     psi = 0.080*[#   2]+0.080*[#   6]+0.071*[#   1]+0.070*[#  10]+0.069*[#   4]
          +0.069*[#   8]+0.051*[#   3]+0.051*[#   7]+0.026*[#   5]+0.026*[#   9]
          
    |psi|^2 = 0.593
==== e(   8) =     1.31732 eV ==== 
     psi = 0.190*[#   1]+0.190*[#  10]+0.099*[#   3]+0.099*[#   7]+0.065*[#   2]
          +0.066*[#   6]+0.007*[#   4]+0.007*[#   8]+0.007*[#   5]+0.007*[#   9]
          
    |psi|^2 = 0.735
==== e(   9) =     2.77729 eV ==== 
     psi = 0.086*[#   5]+0.086*[#   9]+0.023*[#   1]+0.023*[#   4]+0.023*[#   8]
          +0.023*[#  10]+0.006*[#   3]+0.006*[#   7]+0.002*[#   2]+0.002*[#   6]
          
    |psi|^2 = 0.279
==== e(  10) =     3.02374 eV ==== 
     psi = 0.181*[#   5]+0.181*[#   9]+0.073*[#   4]+0.073*[#   8]+0.003*[#   1]
          +0.003*[#  10]
    |psi|^2 = 0.513

 k =  -0.4000000000  0.2598152425  0.0000000000
==== e(   1) =   -12.02927 eV ==== 
     psi = 0.326*[#   6]+0.326*[#   2]+0.075*[#   4]+0.075*[#   8]+0.064*[#   1]
          +0.064*[#  10]+0.030*[#   5]+0.030*[#   9]
    |psi|^2 = 0.991
==== e(   2) =    -9.86676 eV ==== 
     psi = 0.215*[#   2]+0.215*[#   6]+0.115*[#   1]+0.115*[#  10]+0.103*[#   4]
          +0.103*[#   8]+0.035*[#   5]+0.035*[#   9]+0.025*[#   3]+0.025*[#   7]
          
    |psi|^2 = 0.986
==== e(   3) =    -6.92259 eV ==== 
     psi = 0.192*[#   7]+0.192*[#   3]+0.132*[#   4]+0.132*[#   8]+0.119*[#  10]
          +0.118*[#   1]+0.041*[#   5]+0.041*[#   9]+0.005*[#   2]+0.005*[#   6]
          
    |psi|^2 = 0.977
==== e(   4) =    -6.04558 eV ==== 
     psi = 0.224*[#   1]+0.224*[#  10]+0.214*[#   3]+0.214*[#   7]+0.030*[#   4]
          +0.030*[#   8]+0.015*[#   5]+0.015*[#   9]+0.008*[#   2]+0.008*[#   6]
          
    |psi|^2 = 0.983
==== e(   5) =    -4.77618 eV ==== 
     psi = 0.367*[#   5]+0.367*[#   9]+0.125*[#   4]+0.125*[#   8]+0.002*[#   3]
          +0.002*[#   7]+0.001*[#   2]+0.001*[#   6]
    |psi|^2 = 0.990
==== e(   6) =    -1.13989 eV ==== 
     psi = 0.148*[#   2]+0.148*[#   6]+0.134*[#   4]+0.134*[#   8]+0.112*[#   3]
          +0.112*[#   7]+0.038*[#   5]+0.038*[#   9]+0.004*[#   1]+0.004*[#  10]
          
    |psi|^2 = 0.873
==== e(   7) =     0.46042 eV ==== 
     psi = 0.084*[#   2]+0.084*[#   6]+0.076*[#   4]+0.076*[#   8]+0.073*[#   1]
          +0.073*[#  10]+0.048*[#   3]+0.048*[#   7]+0.028*[#   5]+0.028*[#   9]
          
    |psi|^2 = 0.617
==== e(   8) =     1.31546 eV ==== 
[...]
     psi = 0.220*[#   4]+0.220*[#   8]+0.042*[#  10]+0.042*[#   1]+0.029*[#   3]
          +0.029*[#   7]+0.023*[#   2]+0.023*[#   6]+0.007*[#   5]+0.007*[#   9]
          
    |psi|^2 = 0.641
==== e(  10) =     4.08825 eV ==== 
     psi = 0.032*[#   1]+0.031*[#  10]+0.008*[#   3]+0.007*[#   7]+0.007*[#   6]
          +0.007*[#   2]
    |psi|^2 = 0.095

 k =   0.0000000000  0.5196304850  0.0000000000
==== e(   1) =   -11.82488 eV ==== 
     psi = 0.326*[#   6]+0.326*[#   2]+0.102*[#   5]+0.102*[#   9]+0.068*[#  10]
          +0.067*[#   1]
    |psi|^2 = 0.992
==== e(   2) =   -10.08761 eV ==== 
     psi = 0.218*[#   2]+0.217*[#   6]+0.159*[#   9]+0.159*[#   5]+0.100*[#   1]
          +0.100*[#  10]+0.016*[#   3]+0.016*[#   7]
    |psi|^2 = 0.986
==== e(   3) =    -6.94190 eV ==== 
     psi = 0.197*[#   7]+0.197*[#   3]+0.155*[#   5]+0.155*[#   9]+0.136*[#  10]
          +0.136*[#   1]+0.001*[#   2]+0.001*[#   6]
    |psi|^2 = 0.978
==== e(   4) =    -6.08214 eV ==== 
     psi = 0.218*[#   3]+0.218*[#   7]+0.217*[#   1]+0.217*[#  10]+0.049*[#   5]
          +0.049*[#   9]+0.008*[#   2]+0.008*[#   6]
    |psi|^2 = 0.983
==== e(   5) =    -4.78709 eV ==== 
     psi = 0.495*[#   4]+0.495*[#   8]
    |psi|^2 = 0.991
==== e(   6) =    -1.20886 eV ==== 
     psi = 0.158*[#   5]+0.158*[#   9]+0.154*[#   2]+0.154*[#   6]+0.118*[#   3]
          +0.118*[#   7]+0.002*[#   1]+0.002*[#  10]
    |psi|^2 = 0.865
==== e(   7) =     0.33923 eV ==== 
     psi = 0.114*[#   5]+0.114*[#   9]+0.089*[#   2]+0.089*[#   6]+0.077*[#   1]
          +0.076*[#  10]+0.043*[#   3]+0.043*[#   7]
    |psi|^2 = 0.644
==== e(   8) =     1.30373 eV ==== 
     psi = 0.178*[#  10]+0.178*[#   1]+0.097*[#   3]+0.097*[#   7]+0.068*[#   2]
          +0.068*[#   6]+0.012*[#   5]+0.012*[#   9]
    |psi|^2 = 0.710
==== e(   9) =     2.99169 eV ==== 
     psi = 0.341*[#   4]+0.341*[#   8]
    |psi|^2 = 0.682
==== e(  10) =     3.39211 eV ==== 
     psi = 0.038*[#   1]+0.038*[#  10]+0.015*[#   3]+0.015*[#   7]+0.004*[#   5]
          +0.004*[#   9]+0.003*[#   2]+0.003*[#   6]
    |psi|^2 = 0.118

 k =  -0.0250000000  0.5340646651  0.0000000000
==== e(   1) =   -11.76714 eV ==== 
     psi = 0.327*[#   6]+0.326*[#   2]+0.100*[#   5]+0.100*[#   9]+0.069*[#  10]
          +0.069*[#   1]
    |psi|^2 = 0.992
==== e(   2) =   -10.14537 eV ==== 
     psi = 0.218*[#   2]+0.218*[#   6]+0.163*[#   9]+0.163*[#   5]+0.097*[#   1]
          +0.097*[#  10]+0.014*[#   3]+0.014*[#   7]
    |psi|^2 = 0.986
==== e(   3) =    -6.94046 eV ==== 
     psi = 0.197*[#   7]+0.197*[#   3]+0.152*[#   5]+0.152*[#   9]+0.140*[#  10]
          +0.140*[#   1]
    |psi|^2 = 0.979
==== e(   4) =    -6.09196 eV ==== 
     psi = 0.220*[#   3]+0.219*[#   7]+0.215*[#   1]+0.215*[#  10]+0.050*[#   5]
          +0.050*[#   9]+0.007*[#   2]+0.007*[#   6]
    |psi|^2 = 0.983
==== e(   5) =    -4.83214 eV ==== 
     psi = 0.490*[#   4]+0.490*[#   8]+0.002*[#   5]+0.002*[#   9]+0.002*[#   3]
          +0.002*[#   7]+0.001*[#   2]+0.001*[#   6]
    |psi|^2 = 0.990
==== e(   6) =    -1.16237 eV ==== 
     psi = 0.154*[#   5]+0.154*[#   9]+0.153*[#   2]+0.153*[#   6]+0.118*[#   3]
          +0.118*[#   7]+0.004*[#   4]+0.004*[#   8]+0.001*[#   1]+0.001*[#  10]
          
    |psi|^2 = 0.861
==== e(   7) =     0.31747 eV ==== 
     psi = 0.117*[#   5]+0.117*[#   9]+0.089*[#   2]+0.089*[#   6]+0.077*[#   1]
          +0.077*[#  10]+0.042*[#   3]+0.042*[#   7]
    |psi|^2 = 0.651
==== e(   8) =     1.30240 eV ==== 
     psi = 0.176*[#   1]+0.176*[#  10]+0.097*[#   3]+0.097*[#   7]+0.069*[#   6]
          +0.069*[#   2]+0.012*[#   5]+0.012*[#   9]
    |psi|^2 = 0.708
==== e(   9) =     2.93324 eV ==== 
     psi = 0.319*[#   4]+0.319*[#   8]+0.005*[#   1]+0.005*[#  10]+0.003*[#   3]
          +0.003*[#   7]+0.001*[#   2]+0.001*[#   6]
    |psi|^2 = 0.658
==== e(  10) =     3.54358 eV ==== 
     psi = 0.035*[#   1]+0.035*[#  10]+0.015*[#   3]+0.015*[#   7]+0.012*[#   4]
          +0.012*[#   8]+0.003*[#   5]+0.003*[#   9]+0.003*[#   2]+0.003*[#   6]
          
    |psi|^2 = 0.137

 k =   0.9500000000 -0.0288683603  0.0000000000
==== e(   1) =   -11.71144 eV ==== 
     psi = 0.326*[#   6]+0.326*[#   2]+0.098*[#   5]+0.098*[#   9]+0.070*[#  10]
          +0.070*[#   1]+0.002*[#   4]+0.002*[#   8]
    |psi|^2 = 0.992
==== e(   2) =   -10.19280 eV ==== 
     psi = 0.219*[#   2]+0.219*[#   6]+0.165*[#   9]+0.165*[#   5]+0.095*[#   1]
          +0.095*[#  10]+0.013*[#   3]+0.013*[#   7]
    |psi|^2 = 0.986
==== e(   3) =    -6.93229 eV ==== 
     psi = 0.196*[#   7]+0.196*[#   3]+0.151*[#   5]+0.151*[#   9]+0.142*[#  10]
          +0.142*[#   1]
    |psi|^2 = 0.979
==== e(   4) =    -6.10151 eV ==== 
     psi = 0.220*[#   3]+0.220*[#   7]+0.213*[#   1]+0.213*[#  10]+0.050*[#   5]
          +0.050*[#   9]+0.007*[#   2]+0.007*[#   6]
    |psi|^2 = 0.983
==== e(   5) =    -4.93792 eV ==== 
     psi = 0.476*[#   4]+0.476*[#   8]+0.007*[#   5]+0.007*[#   9]+0.007*[#   3]
          +0.007*[#   7]+0.005*[#   2]+0.005*[#   6]
    |psi|^2 = 0.990
==== e(   6) =    -1.01830 eV ==== 
     psi = 0.148*[#   2]+0.147*[#   6]+0.147*[#   5]+0.147*[#   9]+0.115*[#   3]
          +0.115*[#   7]+0.016*[#   4]+0.016*[#   8]+0.001*[#   1]+0.001*[#  10]
          
    |psi|^2 = 0.855
==== e(   7) =     0.31092 eV ==== 
     psi = 0.119*[#   5]+0.119*[#   9]+0.088*[#   2]+0.088*[#   6]+0.077*[#   1]
          +0.077*[#  10]+0.041*[#   3]+0.041*[#   7]+0.002*[#   4]+0.002*[#   8]
          
    |psi|^2 = 0.655
==== e(   8) =     1.30513 eV ==== 
     psi = 0.175*[#   1]+0.175*[#  10]+0.096*[#   3]+0.096*[#   7]+0.069*[#   6]
          +0.069*[#   2]+0.013*[#   5]+0.012*[#   9]
    |psi|^2 = 0.707
==== e(   9) =     2.79697 eV ==== 
     psi = 0.292*[#   4]+0.292*[#   8]+0.012*[#   1]+0.012*[#  10]+0.009*[#   3]
          +0.009*[#   7]+0.004*[#   2]+0.004*[#   6]+0.003*[#   5]+0.003*[#   9]
          
    |psi|^2 = 0.640
==== e(  10) =     3.72072 eV ==== 
     psi = 0.032*[#  10]+0.032*[#   1]+0.017*[#   4]+0.017*[#   8]+0.012*[#   3]
          +0.012*[#   7]+0.003*[#   2]+0.003*[#   6]+0.002*[#   5]+0.002*[#   9]
          
    |psi|^2 = 0.135

 k =   0.9250000000 -0.0144341801  0.0000000000
==== e(   1) =   -11.66020 eV ==== 
     psi = 0.325*[#   6]+0.325*[#   2]+0.096*[#   5]+0.095*[#   9]+0.071*[#  10]
          +0.071*[#   1]+0.005*[#   4]+0.005*[#   8]
    |psi|^2 = 0.992
==== e(   2) =   -10.22774 eV ==== 
     psi = 0.222*[#   2]+0.221*[#   6]+0.165*[#   9]+0.164*[#   5]+0.093*[#   1]
          +0.093*[#  10]+0.012*[#   3]+0.012*[#   7]+0.002*[#   4]+0.002*[#   8]
          
    |psi|^2 = 0.986
==== e(   3) =    -6.91817 eV ==== 
     psi = 0.194*[#   7]+0.194*[#   3]+0.152*[#   5]+0.152*[#   9]+0.143*[#  10]
          +0.143*[#   1]+0.001*[#   4]+0.001*[#   8]
    |psi|^2 = 0.979
==== e(   4) =    -6.11042 eV ==== 
     psi = 0.221*[#   3]+0.221*[#   7]+0.212*[#   1]+0.211*[#  10]+0.050*[#   5]
          +0.050*[#   9]+0.007*[#   2]+0.007*[#   6]+0.002*[#   4]+0.002*[#   8]
          
    |psi|^2 = 0.983
==== e(   5) =    -5.08928 eV ==== 
     psi = 0.458*[#   4]+0.458*[#   8]+0.013*[#   3]+0.013*[#   7]+0.013*[#   5]
          +0.013*[#   9]+0.009*[#   2]+0.009*[#   6]+0.002*[#   1]+0.002*[#  10]
          
    |psi|^2 = 0.989
==== e(   6) =    -0.79115 eV ==== 
     psi = 0.140*[#   5]+0.140*[#   9]+0.140*[#   2]+0.139*[#   6]+0.111*[#   3]
          +0.111*[#   7]+0.030*[#   4]+0.030*[#   8]+0.001*[#   1]+0.001*[#  10]
          
    |psi|^2 = 0.845
==== e(   7) =     0.31905 eV ==== 
     psi = 0.122*[#   5]+0.122*[#   9]+0.085*[#   2]+0.085*[#   6]+0.076*[#   1]
          +0.076*[#  10]+0.040*[#   3]+0.040*[#   7]+0.006*[#   4]+0.006*[#   8]
          
    |psi|^2 = 0.658
==== e(   8) =     1.31236 eV ==== 
     psi = 0.174*[#   1]+0.174*[#  10]+0.096*[#   3]+0.096*[#   7]+0.070*[#   2]
          +0.070*[#   6]+0.013*[#   5]+0.013*[#   9]
    |psi|^2 = 0.707
==== e(   9) =     2.62002 eV ==== 
     psi = 0.271*[#   4]+0.271*[#   8]+0.019*[#   1]+0.019*[#  10]+0.014*[#   3]
          +0.014*[#   7]+0.007*[#   2]+0.007*[#   6]+0.004*[#   5]+0.004*[#   9]
          
    |psi|^2 = 0.632
==== e(  10) =     3.88462 eV ==== 
     psi = 0.032*[#   1]+0.032*[#  10]+0.010*[#   3]+0.010*[#   7]+0.009*[#   4]
          +0.009*[#   8]+0.004*[#   2]+0.004*[#   6]+0.002*[#   5]+0.002*[#   9]
          
    |psi|^2 = 0.112

 k =   0.9000000000  0.0000000000  0.0000000000
==== e(   1) =   -11.61556 eV ==== 
     psi = 0.323*[#   6]+0.323*[#   2]+0.094*[#   5]+0.093*[#   9]+0.071*[#  10]
          +0.071*[#   1]+0.009*[#   4]+0.009*[#   8]
    |psi|^2 = 0.992
==== e(   2) =   -10.24890 eV ==== 
     psi = 0.225*[#   2]+0.225*[#   6]+0.161*[#   9]+0.160*[#   5]+0.093*[#   1]
          +0.093*[#  10]+0.011*[#   3]+0.011*[#   7]+0.003*[#   4]+0.003*[#   8]
          
    |psi|^2 = 0.986
==== e(   3) =    -6.89838 eV ==== 
     psi = 0.190*[#   7]+0.190*[#   3]+0.155*[#   5]+0.155*[#   9]+0.142*[#  10]
          +0.142*[#   1]+0.003*[#   4]+0.003*[#   8]
    |psi|^2 = 0.980
==== e(   4) =    -6.11889 eV ==== 
     psi = 0.222*[#   3]+0.221*[#   7]+0.210*[#   1]+0.210*[#  10]+0.050*[#   5]
          +0.050*[#   9]+0.007*[#   2]+0.007*[#   6]+0.003*[#   4]+0.003*[#   8]
          
    |psi|^2 = 0.983
==== e(   5) =    -5.26830 eV ==== 
     psi = 0.438*[#   4]+0.438*[#   8]+0.021*[#   3]+0.021*[#   7]+0.019*[#   5]
          +0.019*[#   9]+0.012*[#   2]+0.012*[#   6]+0.004*[#   1]+0.004*[#  10]
          
    |psi|^2 = 0.989
==== e(   6) =    -0.49832 eV ==== 
     psi = 0.132*[#   5]+0.132*[#   9]+0.130*[#   2]+0.130*[#   6]+0.107*[#   3]
          +0.107*[#   7]+0.044*[#   4]+0.044*[#   8]+0.002*[#   1]+0.002*[#  10]
          
    |psi|^2 = 0.830
==== e(   7) =     0.34202 eV ==== 
     psi = 0.125*[#   5]+0.125*[#   9]+0.081*[#   2]+0.081*[#   6]+0.075*[#   1]
          +0.074*[#  10]+0.040*[#   3]+0.039*[#   7]+0.010*[#   4]+0.010*[#   8]
          
    |psi|^2 = 0.659
==== e(   8) =     1.32319 eV ==== 
     psi = 0.173*[#   1]+0.173*[#  10]+0.095*[#   3]+0.095*[#   7]+0.072*[#   2]
          +0.072*[#   6]+0.013*[#   5]+0.013*[#   9]+0.001*[#   4]+0.001*[#   8]
          
    |psi|^2 = 0.710
==== e(   9) =     2.42484 eV ==== 
     psi = 0.253*[#   4]+0.253*[#   8]+0.026*[#   1]+0.026*[#  10]+0.019*[#   3]
          +0.019*[#   7]+0.011*[#   2]+0.011*[#   6]+0.005*[#   5]+0.005*[#   9]
          
    |psi|^2 = 0.631
==== e(  10) =     3.97984 eV ==== 
     psi = 0.034*[#   1]+0.032*[#  10]+0.009*[#   3]+0.008*[#   7]+0.006*[#   2]
          +0.006*[#   6]+0.001*[#   9]+0.001*[#   5]
    |psi|^2 = 0.097

 k =   0.0000000000  0.5484988453  0.0000000000
==== e(   1) =   -11.73169 eV ==== 
     psi = 0.328*[#   6]+0.327*[#   2]+0.099*[#   5]+0.099*[#   9]+0.070*[#  10]
          +0.070*[#   1]
    |psi|^2 = 0.992
==== e(   2) =   -10.18749 eV ==== 
     psi = 0.217*[#   2]+0.217*[#   6]+0.168*[#   9]+0.168*[#   5]+0.094*[#   1]
          +0.094*[#  10]+0.013*[#   3]+0.013*[#   7]
    |psi|^2 = 0.985
==== e(   3) =    -6.94424 eV ==== 
     psi = 0.198*[#   7]+0.197*[#   3]+0.149*[#   5]+0.149*[#   9]+0.143*[#  10]
          +0.143*[#   1]
    |psi|^2 = 0.979
==== e(   4) =    -6.09736 eV ==== 
     psi = 0.220*[#   3]+0.220*[#   7]+0.214*[#   1]+0.213*[#  10]+0.050*[#   5]
          +0.050*[#   9]+0.007*[#   2]+0.007*[#   6]
    |psi|^2 = 0.983
==== e(   5) =    -4.80466 eV ==== 
     psi = 0.495*[#   4]+0.495*[#   8]
    |psi|^2 = 0.991
==== e(   6) =    -1.21627 eV ==== 
     psi = 0.156*[#   2]+0.156*[#   6]+0.154*[#   5]+0.154*[#   9]+0.120*[#   3]
          +0.120*[#   7]
    |psi|^2 = 0.861
==== e(   7) =     0.29433 eV ==== 
     psi = 0.118*[#   5]+0.118*[#   9]+0.090*[#   2]+0.090*[#   6]+0.078*[#   1]
          +0.078*[#  10]+0.041*[#   3]+0.041*[#   7]
    |psi|^2 = 0.655
==== e(   8) =     1.29900 eV ==== 
     psi = 0.175*[#   1]+0.175*[#  10]+0.096*[#   3]+0.096*[#   7]+0.069*[#   2]
          +0.069*[#   6]+0.012*[#   5]+0.012*[#   9]
    |psi|^2 = 0.705
==== e(   9) =     2.99008 eV ==== 
     psi = 0.337*[#   4]+0.337*[#   8]
    |psi|^2 = 0.674
==== e(  10) =     3.63848 eV ==== 
     psi = 0.041*[#  10]+0.041*[#   1]+0.020*[#   3]+0.020*[#   7]+0.004*[#   5]
          +0.004*[#   9]+0.003*[#   2]+0.003*[#   6]
    |psi|^2 = 0.137

 k =   0.9750000000 -0.0144341801  0.0000000000
==== e(   1) =   -11.70099 eV ==== 
     psi = 0.328*[#   6]+0.328*[#   2]+0.097*[#   5]+0.097*[#   9]+0.070*[#  10]
          +0.070*[#   1]
    |psi|^2 = 0.992
==== e(   2) =   -10.21621 eV ==== 
     psi = 0.218*[#   2]+0.217*[#   6]+0.170*[#   9]+0.170*[#   5]+0.093*[#   1]
          +0.093*[#  10]+0.012*[#   3]+0.012*[#   7]
    |psi|^2 = 0.985
==== e(   3) =    -6.94149 eV ==== 
     psi = 0.197*[#   7]+0.197*[#   3]+0.148*[#   5]+0.148*[#   9]+0.144*[#  10]
          +0.144*[#   1]
    |psi|^2 = 0.979
==== e(   4) =    -6.10231 eV ==== 
     psi = 0.221*[#   3]+0.221*[#   7]+0.213*[#   1]+0.212*[#  10]+0.051*[#   5]
          +0.051*[#   9]+0.007*[#   2]+0.007*[#   6]
    |psi|^2 = 0.983
==== e(   5) =    -4.84397 eV ==== 
     psi = 0.490*[#   4]+0.490*[#   8]+0.002*[#   3]+0.002*[#   5]+0.002*[#   7]
          +0.002*[#   9]+0.001*[#   2]+0.001*[#   6]
    |psi|^2 = 0.990
==== e(   6) =    -1.16693 eV ==== 
     psi = 0.154*[#   2]+0.154*[#   6]+0.151*[#   5]+0.151*[#   9]+0.119*[#   3]
          +0.119*[#   7]+0.004*[#   4]+0.004*[#   8]
    |psi|^2 = 0.859
==== e(   7) =     0.28704 eV ==== 
     psi = 0.120*[#   5]+0.120*[#   9]+0.090*[#   2]+0.090*[#   6]+0.078*[#   1]
          +0.078*[#  10]+0.041*[#   3]+0.041*[#   7]
    |psi|^2 = 0.658
==== e(   8) =     1.29942 eV ==== 
     psi = 0.175*[#   1]+0.175*[#  10]+0.096*[#   3]+0.096*[#   7]+0.069*[#   6]
          +0.069*[#   2]+0.012*[#   5]+0.012*[#   9]
    |psi|^2 = 0.705
==== e(   9) =     2.93532 eV ==== 
     psi = 0.321*[#   4]+0.321*[#   8]+0.004*[#   1]+0.004*[#  10]+0.003*[#   3]
          +0.003*[#   7]+0.001*[#   2]+0.001*[#   6]
    |psi|^2 = 0.660
==== e(  10) =     3.78849 eV ==== 
     psi = 0.039*[#   1]+0.039*[#  10]+0.019*[#   3]+0.019*[#   7]+0.006*[#   4]
          +0.006*[#   8]+0.004*[#   2]+0.004*[#   6]+0.003*[#   5]+0.003*[#   9]
          
    |psi|^2 = 0.141

 k =   0.9500000000  0.0000000000  0.0000000000
==== e(   1) =   -11.67684 eV ==== 
     psi = 0.327*[#   6]+0.327*[#   2]+0.096*[#   5]+0.096*[#   9]+0.071*[#  10]
          +0.071*[#   1]+0.002*[#   4]+0.002*[#   8]
    |psi|^2 = 0.992
==== e(   2) =   -10.22976 eV ==== 
     psi = 0.219*[#   2]+0.219*[#   6]+0.169*[#   9]+0.169*[#   5]+0.093*[#   1]
          +0.092*[#  10]+0.012*[#   3]+0.012*[#   7]
    |psi|^2 = 0.985
==== e(   3) =    -6.93282 eV ==== 
     psi = 0.196*[#   7]+0.196*[#   3]+0.149*[#   5]+0.149*[#   9]+0.144*[#  10]
          +0.144*[#   1]
    |psi|^2 = 0.979
==== e(   4) =    -6.10659 eV ==== 
     psi = 0.221*[#   3]+0.221*[#   7]+0.212*[#   1]+0.212*[#  10]+0.050*[#   5]
          +0.050*[#   9]+0.007*[#   2]+0.007*[#   6]
    |psi|^2 = 0.983
==== e(   5) =    -4.94400 eV ==== 
     psi = 0.476*[#   4]+0.476*[#   8]+0.007*[#   5]+0.007*[#   9]+0.007*[#   3]
          +0.007*[#   7]+0.005*[#   2]+0.005*[#   6]
    |psi|^2 = 0.990
==== e(   6) =    -1.02014 eV ==== 
     psi = 0.148*[#   2]+0.148*[#   6]+0.146*[#   5]+0.146*[#   9]+0.116*[#   3]
          +0.116*[#   7]+0.016*[#   4]+0.016*[#   8]
    |psi|^2 = 0.853
==== e(   7) =     0.29515 eV ==== 
     psi = 0.121*[#   5]+0.121*[#   9]+0.088*[#   2]+0.088*[#   6]+0.077*[#   1]
          +0.077*[#  10]+0.040*[#   3]+0.040*[#   7]+0.002*[#   4]+0.002*[#   8]
          
    |psi|^2 = 0.659
==== e(   8) =     1.30415 eV ==== 
     psi = 0.174*[#   1]+0.174*[#  10]+0.096*[#   3]+0.096*[#   7]+0.070*[#   6]
          +0.069*[#   2]+0.013*[#   5]+0.012*[#   9]
    |psi|^2 = 0.706
==== e(   9) =     2.79916 eV ==== 
     psi = 0.295*[#   4]+0.295*[#   8]+0.011*[#   1]+0.011*[#  10]+0.008*[#   3]
          +0.009*[#   7]+0.004*[#   2]+0.004*[#   6]+0.002*[#   5]+0.002*[#   9]
          
    |psi|^2 = 0.643
==== e(  10) =     4.03520 eV ==== 
     psi = 0.045*[#   1]+0.041*[#  10]+0.035*[#   3]+0.034*[#   7]+0.029*[#   4]
          +0.029*[#   8]+0.006*[#   9]+0.006*[#   5]+0.001*[#   2]
    |psi|^2 = 0.225

 k =   0.0000000000 -0.5773672055  0.0000000000
==== e(   1) =   -11.69734 eV ==== 
     psi = 0.328*[#   6]+0.328*[#   2]+0.097*[#   5]+0.097*[#   9]+0.071*[#  10]
          +0.070*[#   1]
    |psi|^2 = 0.992
==== e(   2) =   -10.22431 eV ==== 
     psi = 0.217*[#   2]+0.217*[#   6]+0.172*[#   9]+0.172*[#   5]+0.092*[#   1]
          +0.092*[#  10]+0.012*[#   3]+0.012*[#   7]
    |psi|^2 = 0.985
==== e(   3) =    -6.94450 eV ==== 
     psi = 0.198*[#   7]+0.198*[#   3]+0.147*[#   5]+0.147*[#   9]+0.145*[#  10]
          +0.145*[#   1]
    |psi|^2 = 0.979
==== e(   4) =    -6.10271 eV ==== 
     psi = 0.221*[#   3]+0.221*[#   7]+0.213*[#   1]+0.212*[#  10]+0.051*[#   5]
          +0.051*[#   9]+0.007*[#   2]+0.007*[#   6]
    |psi|^2 = 0.983
==== e(   5) =    -4.81052 eV ==== 
     psi = 0.495*[#   4]+0.495*[#   8]
    |psi|^2 = 0.991
==== e(   6) =    -1.21862 eV ==== 
     psi = 0.156*[#   2]+0.156*[#   6]+0.152*[#   5]+0.152*[#   9]+0.121*[#   3]
          +0.121*[#   7]
    |psi|^2 = 0.860
==== e(   7) =     0.27920 eV ==== 
     psi = 0.120*[#   5]+0.120*[#   9]+0.091*[#   2]+0.091*[#   6]+0.078*[#   1]
          +0.078*[#  10]+0.041*[#   3]+0.041*[#   7]
    |psi|^2 = 0.659
==== e(   8) =     1.29726 eV ==== 
     psi = 0.175*[#   1]+0.175*[#  10]+0.096*[#   3]+0.096*[#   7]+0.069*[#   6]
          +0.069*[#   2]+0.012*[#   5]+0.012*[#   9]
    |psi|^2 = 0.704
==== e(   9) =     2.98930 eV ==== 
     psi = 0.336*[#   4]+0.336*[#   8]
    |psi|^2 = 0.671
==== e(  10) =     3.89853 eV ==== 
     psi = 0.054*[#  10]+0.052*[#   1]+0.043*[#   7]+0.042*[#   3]+0.008*[#   5]
          +0.008*[#   9]+0.002*[#   6]+0.002*[#   2]
    |psi|^2 = 0.211

Lowdin Charges: 

     Atom #   1: total charge =   1.0484, s =  1.0484, p =  0.0000, 
                 spin up      =   0.5241, s =  0.5241, 
                 spin up      =   0.5241, p =  0.0000, pz=  0.0000, px=  0.0000, py=  0.0000, 
                 spin down    =   0.5242, s =  0.5242, 
                 spin down    =   0.5242, p =  0.0000, pz=  0.0000, px=  0.0000, py=  0.0000, 
                 polarization =  -0.0001, s = -0.0001, p =  0.0000, 
     Atom #   2: total charge =   3.8725, s =  1.1380, p =  2.7346, 
                 spin up      =   1.9363, s =  0.5690, 
                 spin up      =   1.9363, p =  1.3673, pz=  0.4480, px=  0.4597, py=  0.4597, 
                 spin down    =   1.9362, s =  0.5690, 
                 spin down    =   1.9362, p =  1.3672, pz=  0.4479, px=  0.4597, py=  0.4597, 
                 polarization =   0.0001, s =  0.0000, p =  0.0001, 
     Atom #   3: total charge =   3.8726, s =  1.1380, p =  2.7347, 
                 spin up      =   1.9364, s =  0.5690, 
                 spin up      =   1.9364, p =  1.3674, pz=  0.4480, px=  0.4597, py=  0.4597, 
                 spin down    =   1.9363, s =  0.5690, 
                 spin down    =   1.9363, p =  1.3673, pz=  0.4479, px=  0.4597, py=  0.4597, 
                 polarization =   0.0001, s =  0.0000, p =  0.0001, 
     Atom #   4: total charge =   1.0484, s =  1.0484, p =  0.0000, 
                 spin up      =   0.5241, s =  0.5241, 
                 spin up      =   0.5241, p =  0.0000, pz=  0.0000, px=  0.0000, py=  0.0000, 
                 spin down    =   0.5243, s =  0.5243, 
                 spin down    =   0.5243, p =  0.0000, pz=  0.0000, px=  0.0000, py=  0.0000, 
                 polarization =  -0.0001, s = -0.0001, p =  0.0000, 
     Spilling Parameter:   0.0158
 
     PROJWFC      :     16.27s CPU     41.49s WALL

 
   This run was terminated on:  23:14:25  31Mar2021            

=------------------------------------------------------------------------------=
   JOB DONE.
=------------------------------------------------------------------------------=
