
     Program PWSCF v.6.6 starts on 31Mar2021 at 22:20:48 

     This program is part of the open-source Quantum ESPRESSO suite
     for quantum simulation of materials; please cite
         "P. Giannozzi et al., J. Phys.:Condens. Matter 21 395502 (2009);
         "P. Giannozzi et al., J. Phys.:Condens. Matter 29 465901 (2017);
          URL http://www.quantum-espresso.org", 
     in publications or presentations arising from this work. More details at
     http://www.quantum-espresso.org/quote

     Parallel version (MPI), running on     1 processors

     MPI processes distributed on     1 nodes
     Fft bands division:     nmany     =       1
     Waiting for input...
     Reading input from standard input
Warning: card &CELL ignored
Warning: card   CELL_DYNAMICS='BFGS', ignored
Warning: card   CELL_DOFREE='ALL', ignored
Warning: card / ignored

     Current dimensions of program PWSCF are:
     Max number of different atomic species (ntypx) = 10
     Max number of k-points (npk) =  40000
     Max angular momentum in pseudopotentials (lmaxx) =  3
     file H.pbe-kjpaw_psl.1.0.0.UPF: wavefunction(s)  1S renormalized

     Subspace diagonalization in iterative solution of the eigenvalue problem:
     a serial algorithm will be used

     Message from routine setup:
     using ibrav=0 with symmetry is DISCOURAGED, use correct ibrav instead
 
     G-vector sticks info
     --------------------
     sticks:   dense  smooth     PW     G-vecs:    dense   smooth      PW
     Sum         769     517    163                91447    49847    9159
 


     bravais-lattice index     =            0
     lattice parameter (alat)  =       7.3699  a.u.
     unit-cell volume          =    1783.2379 (a.u.)^3
     number of atoms/cell      =            4
     number of atomic types    =            2
     number of electrons       =        10.00
     number of Kohn-Sham states=           10
     kinetic-energy cutoff     =      35.0000  Ry
     charge density cutoff     =     210.0000  Ry
     convergence threshold     =      1.0E-06
     mixing beta               =       0.7000
     number of iterations used =            8  plain     mixing
     Exchange-correlation= SLA PW PBX PBC
                           (   1   4   3   4   0   0   0)

     celldm(1)=   7.369932  celldm(2)=   0.000000  celldm(3)=   0.000000
     celldm(4)=   0.000000  celldm(5)=   0.000000  celldm(6)=   0.000000

     crystal axes: (cart. coord. in units of alat)
               a(1) = (   0.500000   0.866000   0.000000 )  
               a(2) = (  -0.500000   0.866000   0.000000 )  
               a(3) = (   0.000000   0.000000   5.144000 )  

     reciprocal axes: (cart. coord. in units 2 pi/alat)
               b(1) = (  1.000000  0.577367  0.000000 )  
               b(2) = ( -1.000000  0.577367  0.000000 )  
               b(3) = (  0.000000  0.000000  0.194401 )  


     PseudoPot. # 1 for Si read from file:
     /home/jesus/Nanociencia_DFT/pseudopotenciales/Si.pbe-n-rrkjus_psl.1.0.0.UPF
     MD5 check sum: fa25574f73a70a4139f2adfbefec430c
     Pseudo is Ultrasoft + core correction, Zval =  4.0
     Generated using "atomic" code by A. Dal Corso v.6.3
     Using radial grid of 1141 points,  6 beta functions with: 
                l(1) =   0
                l(2) =   0
                l(3) =   1
                l(4) =   1
                l(5) =   2
                l(6) =   2
     Q(r) pseudized with 0 coefficients 


     PseudoPot. # 2 for H  read from file:
     /home/jesus/Nanociencia_DFT/pseudopotenciales/H.pbe-kjpaw_psl.1.0.0.UPF
     MD5 check sum: d81a744832360e4a8af0b0b5b123bc2a
     Pseudo is Projector augmented-wave, Zval =  1.0
     Generated using "atomic" code by A. Dal Corso v.6.3MaX
     Shape of augmentation charge: PSQ
     Using radial grid of  929 points,  2 beta functions with: 
                l(1) =   0
                l(2) =   0
     Q(r) pseudized with 0 coefficients 


     atomic species   valence    mass     pseudopotential
        Si             4.00    28.08550     Si( 1.00)
        H              1.00     1.00800     H ( 1.00)

     Starting magnetic structure 
     atomic species   magnetization
        Si           1.000
        H            0.000

      2 Sym. Ops. (no inversion) found



   Cartesian axes

     site n.     atom                  positions (alat units)
         1           H   tau(   1) = (   0.0000000  -0.0000013   0.0001813  )
         2           Si  tau(   2) = (   0.0000000  -0.0001369   0.3859600  )
         3           Si  tau(   3) = (   0.0000000   0.5768931   0.5708596  )
         4           H   tau(   4) = (   0.0000000   0.5767572   0.9565671  )

     number of k points=   421  Methfessel-Paxton smearing, width (Ry)=  0.0100

     Number of k-points >= 100: set verbosity='high' to print them.

     Dense  grid:    91447 G-vectors     FFT dimensions: (  36,  36, 180)

     Smooth grid:    49847 G-vectors     FFT dimensions: (  27,  27, 144)

     Estimated max dynamical RAM per process >       1.14 GB
     Generating pointlists ...
     new r_m :   0.1591 (alat units)  1.1726 (a.u.) for type    1
     new r_m :   0.1591 (alat units)  1.1726 (a.u.) for type    2

     Initial potential from superposition of free atoms

     starting charge    9.99886, renormalised to   10.00000
     Starting wfcs are   10 randomized atomic wfcs
     Checking if some PAW data can be deallocated... 

     total cpu time spent up to now is       37.5 secs

     Self-consistent Calculation

     iteration #  1     ecut=    35.00 Ry     beta= 0.70
     Davidson diagonalization with overlap
     ethr =  1.00E-02,  avg # of iterations =  5.4

     total cpu time spent up to now is      200.6 secs

     total energy              =     -25.01506104 Ry
     estimated scf accuracy    <       0.23153676 Ry

     total magnetization       =     0.63 Bohr mag/cell
     absolute magnetization    =     1.07 Bohr mag/cell

     iteration #  2     ecut=    35.00 Ry     beta= 0.70
     Davidson diagonalization with overlap
     ethr =  2.32E-03,  avg # of iterations =  1.7

     total cpu time spent up to now is      311.5 secs

     total energy              =     -25.15243151 Ry
     estimated scf accuracy    <       0.02394990 Ry

     total magnetization       =    -0.00 Bohr mag/cell
     absolute magnetization    =     0.28 Bohr mag/cell

     iteration #  3     ecut=    35.00 Ry     beta= 0.70
     Davidson diagonalization with overlap
     ethr =  2.39E-04,  avg # of iterations =  7.0

     total cpu time spent up to now is      459.2 secs

     total energy              =     -25.16024258 Ry
     estimated scf accuracy    <       0.00240373 Ry

     total magnetization       =    -0.00 Bohr mag/cell
     absolute magnetization    =     0.12 Bohr mag/cell

     iteration #  4     ecut=    35.00 Ry     beta= 0.70
     Davidson diagonalization with overlap
     c_bands:  1 eigenvalues not converged
     c_bands:  1 eigenvalues not converged
     c_bands:  1 eigenvalues not converged
     c_bands:  1 eigenvalues not converged
     c_bands:  1 eigenvalues not converged
     c_bands:  1 eigenvalues not converged
     c_bands:  1 eigenvalues not converged
     c_bands:  1 eigenvalues not converged
     c_bands:  1 eigenvalues not converged
     ethr =  2.40E-05,  avg # of iterations =  6.5

     total cpu time spent up to now is      608.0 secs

     total energy              =     -25.16149218 Ry
     estimated scf accuracy    <       0.00015406 Ry

     total magnetization       =    -0.00 Bohr mag/cell
     absolute magnetization    =     0.06 Bohr mag/cell

     iteration #  5     ecut=    35.00 Ry     beta= 0.70
     Davidson diagonalization with overlap
     c_bands:  1 eigenvalues not converged
     c_bands:  1 eigenvalues not converged
     c_bands:  1 eigenvalues not converged
     c_bands:  1 eigenvalues not converged
     c_bands:  1 eigenvalues not converged
     c_bands:  1 eigenvalues not converged
     c_bands:  1 eigenvalues not converged
     c_bands:  1 eigenvalues not converged
     c_bands:  1 eigenvalues not converged
     c_bands:  1 eigenvalues not converged
     c_bands:  1 eigenvalues not converged
     c_bands:  1 eigenvalues not converged
     c_bands:  1 eigenvalues not converged
     c_bands:  1 eigenvalues not converged
     c_bands:  1 eigenvalues not converged
     c_bands:  1 eigenvalues not converged
     c_bands:  1 eigenvalues not converged
     c_bands:  1 eigenvalues not converged
     c_bands:  1 eigenvalues not converged
     c_bands:  1 eigenvalues not converged
     c_bands:  1 eigenvalues not converged
     c_bands:  1 eigenvalues not converged
     c_bands:  1 eigenvalues not converged
     c_bands:  1 eigenvalues not converged
     c_bands:  1 eigenvalues not converged
     c_bands:  1 eigenvalues not converged
     c_bands:  1 eigenvalues not converged
     c_bands:  1 eigenvalues not converged
     c_bands:  1 eigenvalues not converged
     c_bands:  1 eigenvalues not converged
     c_bands:  1 eigenvalues not converged
     c_bands:  1 eigenvalues not converged
     c_bands:  1 eigenvalues not converged
     c_bands:  1 eigenvalues not converged
     c_bands:  1 eigenvalues not converged
     c_bands:  1 eigenvalues not converged
     c_bands:  1 eigenvalues not converged
     c_bands:  1 eigenvalues not converged
     c_bands:  1 eigenvalues not converged
     c_bands:  1 eigenvalues not converged
     c_bands:  1 eigenvalues not converged
     c_bands:  1 eigenvalues not converged
     c_bands:  1 eigenvalues not converged
     c_bands:  1 eigenvalues not converged
     c_bands:  1 eigenvalues not converged
     c_bands:  1 eigenvalues not converged
     c_bands:  1 eigenvalues not converged
     c_bands:  1 eigenvalues not converged
     c_bands:  1 eigenvalues not converged
     c_bands:  1 eigenvalues not converged
     c_bands:  1 eigenvalues not converged
     c_bands:  1 eigenvalues not converged
     c_bands:  1 eigenvalues not converged
     c_bands:  1 eigenvalues not converged
     c_bands:  1 eigenvalues not converged
     c_bands:  1 eigenvalues not converged
     c_bands:  1 eigenvalues not converged
     c_bands:  1 eigenvalues not converged
     c_bands:  1 eigenvalues not converged
     c_bands:  1 eigenvalues not converged
     c_bands:  1 eigenvalues not converged
     c_bands:  1 eigenvalues not converged
     c_bands:  1 eigenvalues not converged
     c_bands:  1 eigenvalues not converged
     c_bands:  1 eigenvalues not converged
     ethr =  1.54E-06,  avg # of iterations =  8.7

     total cpu time spent up to now is      777.8 secs

     total energy              =     -25.16166057 Ry
     estimated scf accuracy    <       0.00001877 Ry

     total magnetization       =     0.00 Bohr mag/cell
     absolute magnetization    =     0.03 Bohr mag/cell

     iteration #  6     ecut=    35.00 Ry     beta= 0.70
     Davidson diagonalization with overlap
     c_bands:  1 eigenvalues not converged
     c_bands:  1 eigenvalues not converged
     c_bands:  1 eigenvalues not converged
     c_bands:  1 eigenvalues not converged
     c_bands:  1 eigenvalues not converged
     c_bands:  1 eigenvalues not converged
     c_bands:  1 eigenvalues not converged
     ethr =  1.88E-07,  avg # of iterations =  2.8

     total cpu time spent up to now is      897.5 secs

     total energy              =     -25.16168919 Ry
     estimated scf accuracy    <       0.00002263 Ry

     total magnetization       =     0.00 Bohr mag/cell
     absolute magnetization    =     0.01 Bohr mag/cell

     iteration #  7     ecut=    35.00 Ry     beta= 0.70
     Davidson diagonalization with overlap
     ethr =  1.88E-07,  avg # of iterations =  2.0

     total cpu time spent up to now is     1007.5 secs

     total energy              =     -25.16169987 Ry
     estimated scf accuracy    <       0.00000128 Ry

     total magnetization       =    -0.00 Bohr mag/cell
     absolute magnetization    =     0.01 Bohr mag/cell

     iteration #  8     ecut=    35.00 Ry     beta= 0.70
     Davidson diagonalization with overlap
     ethr =  1.28E-08,  avg # of iterations =  3.0
 
     Magnetic moment per site:
     atom:    1    charge:    0.7352    magn:   -0.0001    constr:    0.0000
     atom:    2    charge:    0.3924    magn:    0.0000    constr:    0.0000
     atom:    3    charge:    0.3910    magn:    0.0000    constr:    0.0000
     atom:    4    charge:    0.7365    magn:   -0.0001    constr:    0.0000

     total cpu time spent up to now is     1121.3 secs

     End of self-consistent calculation

     Number of k-points >= 100: set verbosity='high' to print the bands.

     the Fermi energy is    -2.3960 ev

!    total energy              =     -25.16170200 Ry
     estimated scf accuracy    <       0.00000004 Ry
     smearing contrib. (-TS)   =       0.00000000 Ry
     internal energy E=F+TS    =     -25.16170200 Ry

     The total energy is F=E-TS. E is the sum of the following terms:
     one-electron contribution =    -110.63677806 Ry
     hartree contribution      =      56.62568270 Ry
     xc contribution           =     -13.63445019 Ry
     ewald contribution        =      42.48412590 Ry
     one-center paw contrib.   =      -0.00028234 Ry

     total magnetization       =     0.00 Bohr mag/cell
     absolute magnetization    =     0.00 Bohr mag/cell

     convergence has been achieved in   8 iterations

     Writing output data file /home/jesus/Documentos/Nanociencia_DFT/silicano_con_spin.save/
 
     init_run     :     35.08s CPU     36.04s WALL (       1 calls)
     electrons    :   1044.67s CPU   1084.25s WALL (       1 calls)

     Called by init_run:
     wfcinit      :     33.17s CPU     33.62s WALL (       1 calls)
     potinit      :      0.41s CPU      0.50s WALL (       1 calls)
     hinit0       :      0.57s CPU      0.81s WALL (       1 calls)

     Called by electrons:
     c_bands      :    903.32s CPU    914.02s WALL (       8 calls)
     sum_band     :    136.85s CPU    152.22s WALL (       8 calls)
     v_of_rho     :      2.11s CPU      3.18s WALL (       9 calls)
     newd         :      2.30s CPU      6.41s WALL (       9 calls)
     PAW_pot      :      0.03s CPU      2.51s WALL (       9 calls)
     mix_rho      :      0.34s CPU      1.93s WALL (       8 calls)

     Called by c_bands:
     init_us_2    :     31.12s CPU     31.94s WALL (   14314 calls)
     cegterg      :    769.46s CPU    778.72s WALL (    6736 calls)

     Called by *egterg:
     cdiaghg      :      6.68s CPU     10.58s WALL (   37996 calls)
     h_psi        :    689.28s CPU    693.08s WALL (   38838 calls)
     s_psi        :     27.79s CPU     27.97s WALL (   38838 calls)
     g_psi        :      3.04s CPU      3.07s WALL (   31260 calls)

     Called by h_psi:
     h_psi:calbec :     29.67s CPU     30.60s WALL (   38838 calls)
     vloc_psi     :    627.28s CPU    630.02s WALL (   38838 calls)
     add_vuspsi   :     28.86s CPU     29.02s WALL (   38838 calls)

     General routines
     calbec       :     36.93s CPU     37.94s WALL (   45574 calls)
     fft          :      0.76s CPU      2.03s WALL (     219 calls)
     ffts         :      0.05s CPU      0.05s WALL (      34 calls)
     fftw         :    635.62s CPU    638.34s WALL (  494498 calls)
     interpolate  :      0.14s CPU      0.14s WALL (      18 calls)
 
     Parallel routines
 
     PWSCF        :  18m 2.23s CPU  18m51.74s WALL

 
   This run was terminated on:  22:39:40  31Mar2021            

=------------------------------------------------------------------------------=
   JOB DONE.
=------------------------------------------------------------------------------=
