
     Program PWSCF v.6.6 starts on 17Mar2021 at  9:45:23 

     This program is part of the open-source Quantum ESPRESSO suite
     for quantum simulation of materials; please cite
         "P. Giannozzi et al., J. Phys.:Condens. Matter 21 395502 (2009);
         "P. Giannozzi et al., J. Phys.:Condens. Matter 29 465901 (2017);
          URL http://www.quantum-espresso.org", 
     in publications or presentations arising from this work. More details at
     http://www.quantum-espresso.org/quote

     Parallel version (MPI), running on     1 processors

     MPI processes distributed on     1 nodes
     Fft bands division:     nmany     =       1
     Waiting for input...
     Reading input from standard input
Warning: card &CELL ignored
Warning: card   CELL_DYNAMICS='BFGS', ignored
Warning: card   CELL_DOFREE='ALL', ignored
Warning: card / ignored

     Current dimensions of program PWSCF are:
     Max number of different atomic species (ntypx) = 10
     Max number of k-points (npk) =  40000
     Max angular momentum in pseudopotentials (lmaxx) =  3

     Subspace diagonalization in iterative solution of the eigenvalue problem:
     a serial algorithm will be used

 
     G-vector sticks info
     --------------------
     sticks:   dense  smooth     PW     G-vecs:    dense   smooth      PW
     Sum         871     433    127                65193    23071    3757
 


     bravais-lattice index     =            4
     lattice parameter (alat)  =       7.2764  a.u.
     unit-cell volume          =    1039.7733 (a.u.)^3
     number of atoms/cell      =            2
     number of atomic types    =            1
     number of electrons       =         8.00
     number of Kohn-Sham states=            8
     kinetic-energy cutoff     =      30.0000  Ry
     charge density cutoff     =     240.0000  Ry
     convergence threshold     =      1.0E-06
     mixing beta               =       0.7000
     number of iterations used =            8  plain     mixing
     Exchange-correlation= PBE
                           (   1   4   3   4   0   0   0)

     celldm(1)=   7.276356  celldm(2)=   0.000000  celldm(3)=   3.116493
     celldm(4)=   0.000000  celldm(5)=   0.000000  celldm(6)=   0.000000

     crystal axes: (cart. coord. in units of alat)
               a(1) = (   1.000000   0.000000   0.000000 )  
               a(2) = (  -0.500000   0.866025   0.000000 )  
               a(3) = (   0.000000   0.000000   3.116493 )  

     reciprocal axes: (cart. coord. in units 2 pi/alat)
               b(1) = (  1.000000  0.577350  0.000000 )  
               b(2) = (  0.000000  1.154701  0.000000 )  
               b(3) = (  0.000000  0.000000  0.320873 )  


     PseudoPot. # 1 for Si read from file:
     /home/jesus/Documentos/Nanociencia_DFT/pseudopotenciales/Si.pbe-n-rrkjus_psl.1.0.0.UPF
     MD5 check sum: fa25574f73a70a4139f2adfbefec430c
     Pseudo is Ultrasoft + core correction, Zval =  4.0
     Generated using "atomic" code by A. Dal Corso v.6.3
     Using radial grid of 1141 points,  6 beta functions with: 
                l(1) =   0
                l(2) =   0
                l(3) =   1
                l(4) =   1
                l(5) =   2
                l(6) =   2
     Q(r) pseudized with 0 coefficients 


     atomic species   valence    mass     pseudopotential
        Si             4.00    28.08550     Si( 1.00)

      6 Sym. Ops. (no inversion) found



   Cartesian axes

     site n.     atom                  positions (alat units)
         1           Si  tau(   1) = (  -0.0000000   0.5773503   1.5329382  )
         2           Si  tau(   2) = (   0.5000000   0.2886751   1.6614235  )

     number of k points=    13  Methfessel-Paxton smearing, width (Ry)=  0.0100
                       cart. coord. in units 2pi/alat
        k(    1) = (   0.0000000   0.0000000   0.0000000), wk =   0.0312500
        k(    2) = (   0.0000000   0.0000000   0.0802184), wk =   0.0625000
        k(    3) = (   0.0000000   0.0000000  -0.1604367), wk =   0.0312500
        k(    4) = (   0.0000000   0.2886751   0.0000000), wk =   0.1875000
        k(    5) = (   0.0000000   0.2886751   0.0802184), wk =   0.1875000
        k(    6) = (   0.0000000   0.2886751  -0.1604367), wk =   0.1875000
        k(    7) = (   0.0000000  -0.5773503   0.0000000), wk =   0.0937500
        k(    8) = (   0.0000000  -0.5773503   0.0802184), wk =   0.1875000
        k(    9) = (   0.0000000  -0.5773503  -0.1604367), wk =   0.0937500
        k(   10) = (   0.2500000   0.4330127   0.0000000), wk =   0.1875000
        k(   11) = (   0.2500000   0.4330127   0.0802184), wk =   0.3750000
        k(   12) = (   0.2500000   0.4330127  -0.1604367), wk =   0.1875000
        k(   13) = (   0.0000000  -0.2886751   0.0802184), wk =   0.1875000

     Dense  grid:    65193 G-vectors     FFT dimensions: (  36,  36, 120)

     Smooth grid:    23071 G-vectors     FFT dimensions: (  25,  25,  80)

     Estimated max dynamical RAM per process >     232.24 MB

     Initial potential from superposition of free atoms

     starting charge    7.99888, renormalised to    8.00000

     negative rho (up, down):  2.447E-06 0.000E+00
     Starting wfcs are    8 randomized atomic wfcs

     total cpu time spent up to now is        1.8 secs

     Self-consistent Calculation

     iteration #  1     ecut=    30.00 Ry     beta= 0.70
     Davidson diagonalization with overlap
     ethr =  1.00E-02,  avg # of iterations =  4.2

     Threshold (ethr) on eigenvalues was too large:
     Diagonalizing with lowered threshold

     Davidson diagonalization with overlap
     ethr =  8.09E-04,  avg # of iterations =  1.0

     negative rho (up, down):  4.445E-07 0.000E+00

     total cpu time spent up to now is        4.1 secs

     total energy              =     -22.73401173 Ry
     estimated scf accuracy    <       0.07047218 Ry

     iteration #  2     ecut=    30.00 Ry     beta= 0.70
     Davidson diagonalization with overlap
     ethr =  8.81E-04,  avg # of iterations =  3.2

     negative rho (up, down):  6.069E-07 0.000E+00

     total cpu time spent up to now is        5.2 secs

     total energy              =     -22.74105973 Ry
     estimated scf accuracy    <       0.00205656 Ry

     iteration #  3     ecut=    30.00 Ry     beta= 0.70
     Davidson diagonalization with overlap
     ethr =  2.57E-05,  avg # of iterations =  4.7

     negative rho (up, down):  6.720E-07 0.000E+00

     total cpu time spent up to now is        6.4 secs

     total energy              =     -22.74126432 Ry
     estimated scf accuracy    <       0.00012543 Ry

     iteration #  4     ecut=    30.00 Ry     beta= 0.70
     Davidson diagonalization with overlap
     ethr =  1.57E-06,  avg # of iterations =  3.8

     negative rho (up, down):  6.156E-07 0.000E+00

     total cpu time spent up to now is        7.6 secs

     total energy              =     -22.74127732 Ry
     estimated scf accuracy    <       0.00001525 Ry

     iteration #  5     ecut=    30.00 Ry     beta= 0.70
     Davidson diagonalization with overlap
     ethr =  1.91E-07,  avg # of iterations =  2.0

     negative rho (up, down):  5.285E-07 0.000E+00

     total cpu time spent up to now is        8.7 secs

     total energy              =     -22.74128151 Ry
     estimated scf accuracy    <       0.00000194 Ry

     iteration #  6     ecut=    30.00 Ry     beta= 0.70
     Davidson diagonalization with overlap
     ethr =  2.43E-08,  avg # of iterations =  1.4

     negative rho (up, down):  4.920E-07 0.000E+00

     total cpu time spent up to now is        9.7 secs

     End of self-consistent calculation

          k = 0.0000 0.0000 0.0000 (  2895 PWs)   bands (ev):

   -12.7674  -4.9140  -2.8429  -2.8429   0.3449   0.7420   1.3632   1.3632

          k = 0.0000 0.0000 0.0802 (  2908 PWs)   bands (ev):

   -12.7674  -4.9140  -2.8429  -2.8429   0.3449   0.7628   1.3632   1.3632

          k = 0.0000 0.0000-0.1604 (  2872 PWs)   bands (ev):

   -12.7674  -4.9141  -2.8428  -2.8428   0.3449   0.7849   1.3633   1.3633

          k = 0.0000 0.2887 0.0000 (  2895 PWs)   bands (ev):

   -12.0431  -6.1028  -4.1188  -3.6944   0.0571   0.8847   2.6234   3.5609

          k = 0.0000 0.2887 0.0802 (  2893 PWs)   bands (ev):

   -12.0431  -6.1028  -4.1189  -3.6944   0.0571   0.8886   2.6914   3.5609

          k = 0.0000 0.2887-0.1604 (  2884 PWs)   bands (ev):

   -12.0431  -6.1028  -4.1189  -3.6944   0.0571   0.8934   2.7458   3.5609

          k = 0.0000-0.5774 0.0000 (  2888 PWs)   bands (ev):

   -10.5174  -8.8514  -4.2517  -2.7406  -1.0923  -0.5083   3.7873   4.9054

          k = 0.0000-0.5774 0.0802 (  2882 PWs)   bands (ev):

   -10.5174  -8.8514  -4.2517  -2.7406  -1.0923  -0.5083   3.7984   4.9058

          k = 0.0000-0.5774-0.1604 (  2880 PWs)   bands (ev):

   -10.5174  -8.8514  -4.2517  -2.7407  -1.0924  -0.5083   3.8097   4.9058

          k = 0.2500 0.4330 0.0000 (  2876 PWs)   bands (ev):

   -10.6949  -8.2070  -5.5687  -2.8429  -0.5804   2.7574   2.7936   3.2471

          k = 0.2500 0.4330 0.0802 (  2876 PWs)   bands (ev):

   -10.6949  -8.2070  -5.5687  -2.8429  -0.5804   2.7578   2.7926   3.2467

          k = 0.2500 0.4330-0.1604 (  2882 PWs)   bands (ev):

   -10.6949  -8.2070  -5.5687  -2.8429  -0.5804   2.7582   2.7916   3.2462

          k = 0.0000-0.2887 0.0802 (  2893 PWs)   bands (ev):

   -12.0431  -6.1028  -4.1189  -3.6944   0.0571   0.8895   2.6548   3.5609

     the Fermi energy is    -1.2069 ev

!    total energy              =     -22.74128189 Ry
     estimated scf accuracy    <       0.00000004 Ry
     smearing contrib. (-TS)   =       0.00010871 Ry
     internal energy E=F+TS    =     -22.74139060 Ry

     The total energy is F=E-TS. E is the sum of the following terms:
     one-electron contribution =     -38.15070021 Ry
     hartree contribution      =      20.37922466 Ry
     xc contribution           =     -12.15361227 Ry
     ewald contribution        =       7.18369722 Ry

     convergence has been achieved in   6 iterations

     Writing output data file /home/jesus/Documentos/Nanociencia_DFT/test.save/
 
     init_run     :      0.98s CPU      1.16s WALL (       1 calls)
     electrons    :      6.78s CPU      7.86s WALL (       1 calls)

     Called by init_run:
     wfcinit      :      0.16s CPU      0.17s WALL (       1 calls)
     potinit      :      0.14s CPU      0.16s WALL (       1 calls)
     hinit0       :      0.37s CPU      0.40s WALL (       1 calls)

     Called by electrons:
     c_bands      :      3.71s CPU      3.73s WALL (       7 calls)
     sum_band     :      1.76s CPU      2.30s WALL (       7 calls)
     v_of_rho     :      0.49s CPU      0.51s WALL (       7 calls)
     newd         :      1.12s CPU      1.74s WALL (       7 calls)
     mix_rho      :      0.04s CPU      0.04s WALL (       7 calls)

     Called by c_bands:
     init_us_2    :      0.17s CPU      0.17s WALL (     195 calls)
     cegterg      :      2.90s CPU      2.91s WALL (      91 calls)

     Called by *egterg:
     cdiaghg      :      0.04s CPU      0.04s WALL (     341 calls)
     h_psi        :      2.62s CPU      2.64s WALL (     367 calls)
     s_psi        :      0.10s CPU      0.10s WALL (     367 calls)
     g_psi        :      0.01s CPU      0.01s WALL (     263 calls)

     Called by h_psi:
     h_psi:calbec :      0.12s CPU      0.12s WALL (     367 calls)
     vloc_psi     :      2.38s CPU      2.39s WALL (     367 calls)
     add_vuspsi   :      0.11s CPU      0.11s WALL (     367 calls)

     General routines
     calbec       :      0.16s CPU      0.16s WALL (     458 calls)
     fft          :      0.18s CPU      0.20s WALL (      90 calls)
     ffts         :      0.01s CPU      0.01s WALL (      14 calls)
     fftw         :      2.42s CPU      2.44s WALL (    4750 calls)
     interpolate  :      0.02s CPU      0.02s WALL (       7 calls)
 
     Parallel routines
 
     PWSCF        :      8.45s CPU      9.81s WALL

 
   This run was terminated on:   9:45:33  17Mar2021            

=------------------------------------------------------------------------------=
   JOB DONE.
=------------------------------------------------------------------------------=
