
     Program PWSCF v.6.6 starts on 17Mar2021 at  9:45:47 

     This program is part of the open-source Quantum ESPRESSO suite
     for quantum simulation of materials; please cite
         "P. Giannozzi et al., J. Phys.:Condens. Matter 21 395502 (2009);
         "P. Giannozzi et al., J. Phys.:Condens. Matter 29 465901 (2017);
          URL http://www.quantum-espresso.org", 
     in publications or presentations arising from this work. More details at
     http://www.quantum-espresso.org/quote

     Parallel version (MPI), running on     1 processors

     MPI processes distributed on     1 nodes
     Fft bands division:     nmany     =       1
     Waiting for input...
     Reading input from standard input
Warning: card &CELL ignored
Warning: card   CELL_DYNAMICS='BFGS', ignored
Warning: card   CELL_DOFREE='ALL', ignored
Warning: card / ignored

     Current dimensions of program PWSCF are:
     Max number of different atomic species (ntypx) = 10
     Max number of k-points (npk) =  40000
     Max angular momentum in pseudopotentials (lmaxx) =  3

     Subspace diagonalization in iterative solution of the eigenvalue problem:
     a serial algorithm will be used

 
     G-vector sticks info
     --------------------
     sticks:   dense  smooth     PW     G-vecs:    dense   smooth      PW
     Sum         871     433    139                65193    23071    3853
 


     bravais-lattice index     =            4
     lattice parameter (alat)  =       7.2764  a.u.
     unit-cell volume          =    1039.7733 (a.u.)^3
     number of atoms/cell      =            2
     number of atomic types    =            1
     number of electrons       =         8.00
     number of Kohn-Sham states=            8
     kinetic-energy cutoff     =      30.0000  Ry
     charge density cutoff     =     240.0000  Ry
     convergence threshold     =      1.0E-06
     mixing beta               =       0.7000
     number of iterations used =            8  plain     mixing
     Exchange-correlation= PBE
                           (   1   4   3   4   0   0   0)

     celldm(1)=   7.276356  celldm(2)=   0.000000  celldm(3)=   3.116493
     celldm(4)=   0.000000  celldm(5)=   0.000000  celldm(6)=   0.000000

     crystal axes: (cart. coord. in units of alat)
               a(1) = (   1.000000   0.000000   0.000000 )  
               a(2) = (  -0.500000   0.866025   0.000000 )  
               a(3) = (   0.000000   0.000000   3.116493 )  

     reciprocal axes: (cart. coord. in units 2 pi/alat)
               b(1) = (  1.000000  0.577350  0.000000 )  
               b(2) = (  0.000000  1.154701  0.000000 )  
               b(3) = (  0.000000  0.000000  0.320873 )  


     PseudoPot. # 1 for Si read from file:
     /home/jesus/Documentos/Nanociencia_DFT/pseudopotenciales/Si.pbe-n-rrkjus_psl.1.0.0.UPF
     MD5 check sum: fa25574f73a70a4139f2adfbefec430c
     Pseudo is Ultrasoft + core correction, Zval =  4.0
     Generated using "atomic" code by A. Dal Corso v.6.3
     Using radial grid of 1141 points,  6 beta functions with: 
                l(1) =   0
                l(2) =   0
                l(3) =   1
                l(4) =   1
                l(5) =   2
                l(6) =   2
     Q(r) pseudized with 0 coefficients 


     atomic species   valence    mass     pseudopotential
        Si             4.00    28.08550     Si( 1.00)

      6 Sym. Ops. (no inversion) found



   Cartesian axes

     site n.     atom                  positions (alat units)
         1           Si  tau(   1) = (  -0.0000000   0.5773503   1.5329382  )
         2           Si  tau(   2) = (   0.5000000   0.2886751   1.6614235  )

     number of k points=    34  Methfessel-Paxton smearing, width (Ry)=  0.0100
                       cart. coord. in units 2pi/alat
        k(    1) = (   0.0000000   0.0000000   0.0000000), wk =   0.0092593
        k(    2) = (   0.0000000   0.0000000   0.0534789), wk =   0.0185185
        k(    3) = (   0.0000000   0.0000000   0.1069578), wk =   0.0185185
        k(    4) = (   0.0000000   0.0000000  -0.1604367), wk =   0.0092593
        k(    5) = (   0.0000000   0.1924501   0.0000000), wk =   0.0555556
        k(    6) = (   0.0000000   0.1924501   0.0534789), wk =   0.0555556
        k(    7) = (   0.0000000   0.1924501   0.1069578), wk =   0.0555556
        k(    8) = (   0.0000000   0.1924501  -0.1604367), wk =   0.0555556
        k(    9) = (   0.0000000   0.3849002   0.0000000), wk =   0.0555556
        k(   10) = (   0.0000000   0.3849002   0.0534789), wk =   0.0555556
        k(   11) = (   0.0000000   0.3849002   0.1069578), wk =   0.0555556
        k(   12) = (   0.0000000   0.3849002  -0.1604367), wk =   0.0555556
        k(   13) = (   0.0000000  -0.5773503   0.0000000), wk =   0.0277778
        k(   14) = (   0.0000000  -0.5773503   0.0534789), wk =   0.0555556
        k(   15) = (   0.0000000  -0.5773503   0.1069578), wk =   0.0555556
        k(   16) = (   0.0000000  -0.5773503  -0.1604367), wk =   0.0277778
        k(   17) = (   0.1666667   0.2886751   0.0000000), wk =   0.0555556
        k(   18) = (   0.1666667   0.2886751   0.0534789), wk =   0.1111111
        k(   19) = (   0.1666667   0.2886751   0.1069578), wk =   0.1111111
        k(   20) = (   0.1666667   0.2886751  -0.1604367), wk =   0.0555556
        k(   21) = (   0.1666667   0.4811252   0.0000000), wk =   0.1111111
        k(   22) = (   0.1666667   0.4811252   0.0534789), wk =   0.1111111
        k(   23) = (   0.1666667   0.4811252   0.1069578), wk =   0.1111111
        k(   24) = (   0.1666667   0.4811252  -0.1604367), wk =   0.1111111
        k(   25) = (   0.3333333   0.5773503   0.0000000), wk =   0.0185185
        k(   26) = (   0.3333333   0.5773503   0.0534789), wk =   0.0370370
        k(   27) = (   0.3333333   0.5773503   0.1069578), wk =   0.0370370
        k(   28) = (   0.3333333   0.5773503  -0.1604367), wk =   0.0185185
        k(   29) = (   0.0000000  -0.1924501   0.0534789), wk =   0.0555556
        k(   30) = (   0.0000000  -0.1924501   0.1069578), wk =   0.0555556
        k(   31) = (   0.0000000  -0.3849002   0.0534789), wk =   0.0555556
        k(   32) = (   0.0000000  -0.3849002   0.1069578), wk =   0.0555556
        k(   33) = (  -0.1666667  -0.4811252   0.0534789), wk =   0.1111111
        k(   34) = (  -0.1666667  -0.4811252   0.1069578), wk =   0.1111111

     Dense  grid:    65193 G-vectors     FFT dimensions: (  36,  36, 120)

     Smooth grid:    23071 G-vectors     FFT dimensions: (  25,  25,  80)

     Estimated max dynamical RAM per process >     239.64 MB

     Initial potential from superposition of free atoms

     starting charge    7.99888, renormalised to    8.00000

     negative rho (up, down):  2.447E-06 0.000E+00
     Starting wfcs are    8 randomized atomic wfcs

     total cpu time spent up to now is        2.3 secs

     Self-consistent Calculation

     iteration #  1     ecut=    30.00 Ry     beta= 0.70
     Davidson diagonalization with overlap
     ethr =  1.00E-02,  avg # of iterations =  4.2

     Threshold (ethr) on eigenvalues was too large:
     Diagonalizing with lowered threshold

     Davidson diagonalization with overlap
     ethr =  7.75E-04,  avg # of iterations =  1.4

     negative rho (up, down):  4.088E-07 0.000E+00

     total cpu time spent up to now is        7.1 secs

     total energy              =     -22.73620802 Ry
     estimated scf accuracy    <       0.06778956 Ry

     iteration #  2     ecut=    30.00 Ry     beta= 0.70
     Davidson diagonalization with overlap
     ethr =  8.47E-04,  avg # of iterations =  3.7

     negative rho (up, down):  4.708E-07 0.000E+00

     total cpu time spent up to now is        9.1 secs

     total energy              =     -22.74340077 Ry
     estimated scf accuracy    <       0.00193068 Ry

     iteration #  3     ecut=    30.00 Ry     beta= 0.70
     Davidson diagonalization with overlap
     ethr =  2.41E-05,  avg # of iterations =  6.8

     negative rho (up, down):  6.150E-07 0.000E+00

     total cpu time spent up to now is       11.6 secs

     total energy              =     -22.74358209 Ry
     estimated scf accuracy    <       0.00011876 Ry

     iteration #  4     ecut=    30.00 Ry     beta= 0.70
     Davidson diagonalization with overlap
     c_bands:  1 eigenvalues not converged
     c_bands:  1 eigenvalues not converged
     ethr =  1.48E-06,  avg # of iterations =  6.5

     negative rho (up, down):  5.655E-07 0.000E+00

     total cpu time spent up to now is       13.9 secs

     total energy              =     -22.74359390 Ry
     estimated scf accuracy    <       0.00000311 Ry

     iteration #  5     ecut=    30.00 Ry     beta= 0.70
     Davidson diagonalization with overlap
     ethr =  3.89E-08,  avg # of iterations =  2.4

     negative rho (up, down):  5.300E-07 0.000E+00

     total cpu time spent up to now is       15.8 secs

     total energy              =     -22.74359499 Ry
     estimated scf accuracy    <       0.00000466 Ry

     iteration #  6     ecut=    30.00 Ry     beta= 0.70
     Davidson diagonalization with overlap
     ethr =  3.89E-08,  avg # of iterations =  1.1

     negative rho (up, down):  5.006E-07 0.000E+00

     total cpu time spent up to now is       17.6 secs

     End of self-consistent calculation

          k = 0.0000 0.0000 0.0000 (  2895 PWs)   bands (ev):

   -12.7876  -4.9274  -2.8669  -2.8669   0.3274   0.7363   1.3481   1.3481

          k = 0.0000 0.0000 0.0535 (  2907 PWs)   bands (ev):

   -12.7876  -4.9274  -2.8669  -2.8669   0.3273   0.7465   1.3480   1.3480

          k = 0.0000 0.0000 0.1070 (  2884 PWs)   bands (ev):

   -12.7876  -4.9274  -2.8669  -2.8669   0.3274   0.7677   1.3481   1.3481

          k = 0.0000 0.0000-0.1604 (  2872 PWs)   bands (ev):

   -12.7876  -4.9274  -2.8669  -2.8669   0.3275   0.7788   1.3481   1.3481

          k = 0.0000 0.1925 0.0000 (  2897 PWs)   bands (ev):

   -12.4623  -4.9943  -4.3434  -3.3512   0.4884   0.9230   2.4502   2.5251

          k = 0.0000 0.1925 0.0535 (  2900 PWs)   bands (ev):

   -12.4623  -4.9943  -4.3434  -3.3512   0.4884   0.9297   2.4502   2.5302

          k = 0.0000 0.1925 0.1070 (  2903 PWs)   bands (ev):

   -12.4623  -4.9943  -4.3434  -3.3512   0.4885   0.9437   2.4502   2.5365

          k = 0.0000 0.1925-0.1604 (  2900 PWs)   bands (ev):

   -12.4623  -4.9943  -4.3434  -3.3512   0.4885   0.9511   2.4502   2.5368

          k = 0.0000 0.3849 0.0000 (  2887 PWs)   bands (ev):

   -11.5270  -7.3251  -4.0161  -3.6447  -0.3612   0.2921   2.7542   4.5911

          k = 0.0000 0.3849 0.0535 (  2890 PWs)   bands (ev):

   -11.5270  -7.3251  -4.0161  -3.6447  -0.3613   0.2921   2.7797   4.1374

          k = 0.0000 0.3849 0.1070 (  2888 PWs)   bands (ev):

   -11.5270  -7.3251  -4.0161  -3.6447  -0.3612   0.2924   2.8212   3.9194

          k = 0.0000 0.3849-0.1604 (  2886 PWs)   bands (ev):

   -11.5270  -7.3251  -4.0161  -3.6447  -0.3612   0.2927   2.8352   3.8678

          k = 0.0000-0.5774 0.0000 (  2888 PWs)   bands (ev):

   -10.5383  -8.8719  -4.2730  -2.7551  -1.1056  -0.5242   3.7818   4.8927

          k = 0.0000-0.5774 0.0535 (  2884 PWs)   bands (ev):

   -10.5383  -8.8719  -4.2730  -2.7551  -1.1056  -0.5242   3.7872   4.8923

          k = 0.0000-0.5774 0.1070 (  2888 PWs)   bands (ev):

   -10.5383  -8.8719  -4.2730  -2.7551  -1.1056  -0.5242   3.7982   4.8926

          k = 0.0000-0.5774-0.1604 (  2880 PWs)   bands (ev):

   -10.5383  -8.8719  -4.2730  -2.7551  -1.1056  -0.5242   3.8039   4.8926

          k = 0.1667 0.2887 0.0000 (  2889 PWs)   bands (ev):

   -11.8269  -6.5080  -4.4441  -3.9021   0.6166   1.7059   1.9192   2.7550

          k = 0.1667 0.2887 0.0535 (  2885 PWs)   bands (ev):

   -11.8269  -6.5080  -4.4441  -3.9021   0.6172   1.7071   1.9192   2.7777

          k = 0.1667 0.2887 0.1070 (  2886 PWs)   bands (ev):

   -11.8269  -6.5080  -4.4441  -3.9021   0.6185   1.7094   1.9192   2.8340

          k = 0.1667 0.2887-0.1604 (  2902 PWs)   bands (ev):

   -11.8269  -6.5080  -4.4441  -3.9021   0.6191   1.7106   1.9191   2.8715

          k = 0.1667 0.4811 0.0000 (  2875 PWs)   bands (ev):

   -10.6770  -8.4095  -5.2813  -2.8255  -0.7348   1.3101   3.1013   3.7615

          k = 0.1667 0.4811 0.0535 (  2872 PWs)   bands (ev):

   -10.6770  -8.4095  -5.2813  -2.8255  -0.7348   1.3102   3.1038   3.7726

          k = 0.1667 0.4811 0.1070 (  2885 PWs)   bands (ev):

   -10.6770  -8.4095  -5.2813  -2.8255  -0.7348   1.3102   3.1038   3.8060

          k = 0.1667 0.4811-0.1604 (  2876 PWs)   bands (ev):

   -10.6770  -8.4095  -5.2813  -2.8255  -0.7348   1.3102   3.1016   3.8289

          k = 0.3333 0.5774 0.0000 (  2850 PWs)   bands (ev):

    -9.5017  -9.5015  -6.1467  -1.7272  -1.7270   2.2597   4.5226   4.5229

          k = 0.3333 0.5774 0.0535 (  2853 PWs)   bands (ev):

    -9.5017  -9.5015  -6.1467  -1.7272  -1.7271   2.2595   4.0518   4.5241

          k = 0.3333 0.5774 0.1070 (  2838 PWs)   bands (ev):

    -9.5017  -9.5015  -6.1467  -1.7272  -1.7271   2.2591   4.5268   4.5272

          k = 0.3333 0.5774-0.1604 (  2832 PWs)   bands (ev):

    -9.5017  -9.5015  -6.1467  -1.7272  -1.7271   2.2590   4.0528   4.5281

          k = 0.0000-0.1925 0.0535 (  2900 PWs)   bands (ev):

   -12.4623  -4.9943  -4.3434  -3.3512   0.4885   0.9299   2.4502   2.5229

          k = 0.0000-0.1925 0.1070 (  2903 PWs)   bands (ev):

   -12.4623  -4.9943  -4.3434  -3.3512   0.4885   0.9440   2.4502   2.5269

          k = 0.0000-0.3849 0.0535 (  2890 PWs)   bands (ev):

   -11.5270  -7.3251  -4.0161  -3.6447  -0.3613   0.2923   2.7647   4.5913

          k = 0.0000-0.3849 0.1070 (  2888 PWs)   bands (ev):

   -11.5270  -7.3251  -4.0161  -3.6447  -0.3612   0.2926   2.8037   4.5913

          k =-0.1667-0.4811 0.0535 (  2872 PWs)   bands (ev):

   -10.6770  -8.4095  -5.2813  -2.8255  -0.7348   1.3101   3.0990   3.7812

          k =-0.1667-0.4811 0.1070 (  2885 PWs)   bands (ev):

   -10.6770  -8.4095  -5.2813  -2.8255  -0.7348   1.3101   3.0991   3.8149

     the Fermi energy is    -1.7271 ev

!    total energy              =     -22.74359562 Ry
     estimated scf accuracy    <       0.00000006 Ry
     smearing contrib. (-TS)   =      -0.00031344 Ry
     internal energy E=F+TS    =     -22.74328219 Ry

     The total energy is F=E-TS. E is the sum of the following terms:
     one-electron contribution =     -38.14481247 Ry
     hartree contribution      =      20.36652653 Ry
     xc contribution           =     -12.14869347 Ry
     ewald contribution        =       7.18369722 Ry

     convergence has been achieved in   6 iterations

     Writing output data file /home/jesus/Documentos/Nanociencia_DFT/test.save/
 
     init_run     :      1.47s CPU      1.66s WALL (       1 calls)
     electrons    :     14.16s CPU     15.27s WALL (       1 calls)

     Called by init_run:
     wfcinit      :      0.80s CPU      0.80s WALL (       1 calls)
     potinit      :      0.10s CPU      0.13s WALL (       1 calls)
     hinit0       :      0.32s CPU      0.34s WALL (       1 calls)

     Called by electrons:
     c_bands      :     10.07s CPU     10.16s WALL (       7 calls)
     sum_band     :      2.77s CPU      3.29s WALL (       7 calls)
     v_of_rho     :      0.47s CPU      0.50s WALL (       7 calls)
     newd         :      1.05s CPU      1.69s WALL (       7 calls)
     mix_rho      :      0.04s CPU      0.04s WALL (       7 calls)

     Called by c_bands:
     init_us_2    :      0.46s CPU      0.47s WALL (     510 calls)
     cegterg      :      7.90s CPU      7.96s WALL (     238 calls)

     Called by *egterg:
     cdiaghg      :      0.13s CPU      0.13s WALL (    1090 calls)
     h_psi        :      7.40s CPU      7.46s WALL (    1158 calls)
     s_psi        :      0.29s CPU      0.29s WALL (    1158 calls)
     g_psi        :      0.03s CPU      0.04s WALL (     886 calls)

     Called by h_psi:
     h_psi:calbec :      0.35s CPU      0.36s WALL (    1158 calls)
     vloc_psi     :      6.68s CPU      6.73s WALL (    1158 calls)
     add_vuspsi   :      0.32s CPU      0.33s WALL (    1158 calls)

     General routines
     calbec       :      0.45s CPU      0.45s WALL (    1396 calls)
     fft          :      0.17s CPU      0.19s WALL (      90 calls)
     ffts         :      0.01s CPU      0.01s WALL (      14 calls)
     fftw         :      6.77s CPU      6.84s WALL (   13006 calls)
     interpolate  :      0.02s CPU      0.02s WALL (       7 calls)
 
     Parallel routines
 
     PWSCF        :     16.28s CPU     17.71s WALL

 
   This run was terminated on:   9:46: 4  17Mar2021            

=------------------------------------------------------------------------------=
   JOB DONE.
=------------------------------------------------------------------------------=
