
     Program PWSCF v.6.6 starts on 17Mar2021 at  9:45: 1 

     This program is part of the open-source Quantum ESPRESSO suite
     for quantum simulation of materials; please cite
         "P. Giannozzi et al., J. Phys.:Condens. Matter 21 395502 (2009);
         "P. Giannozzi et al., J. Phys.:Condens. Matter 29 465901 (2017);
          URL http://www.quantum-espresso.org", 
     in publications or presentations arising from this work. More details at
     http://www.quantum-espresso.org/quote

     Parallel version (MPI), running on     1 processors

     MPI processes distributed on     1 nodes
     Fft bands division:     nmany     =       1
     Waiting for input...
     Reading input from standard input
Warning: card &CELL ignored
Warning: card   CELL_DYNAMICS='BFGS', ignored
Warning: card   CELL_DOFREE='ALL', ignored
Warning: card / ignored

     Current dimensions of program PWSCF are:
     Max number of different atomic species (ntypx) = 10
     Max number of k-points (npk) =  40000
     Max angular momentum in pseudopotentials (lmaxx) =  3

     Subspace diagonalization in iterative solution of the eigenvalue problem:
     a serial algorithm will be used

 
     G-vector sticks info
     --------------------
     sticks:   dense  smooth     PW     G-vecs:    dense   smooth      PW
     Sum         871     433    109                65193    23071    2895
 


     bravais-lattice index     =            4
     lattice parameter (alat)  =       7.2764  a.u.
     unit-cell volume          =    1039.7733 (a.u.)^3
     number of atoms/cell      =            2
     number of atomic types    =            1
     number of electrons       =         8.00
     number of Kohn-Sham states=            8
     kinetic-energy cutoff     =      30.0000  Ry
     charge density cutoff     =     240.0000  Ry
     convergence threshold     =      1.0E-06
     mixing beta               =       0.7000
     number of iterations used =            8  plain     mixing
     Exchange-correlation= PBE
                           (   1   4   3   4   0   0   0)

     celldm(1)=   7.276356  celldm(2)=   0.000000  celldm(3)=   3.116493
     celldm(4)=   0.000000  celldm(5)=   0.000000  celldm(6)=   0.000000

     crystal axes: (cart. coord. in units of alat)
               a(1) = (   1.000000   0.000000   0.000000 )  
               a(2) = (  -0.500000   0.866025   0.000000 )  
               a(3) = (   0.000000   0.000000   3.116493 )  

     reciprocal axes: (cart. coord. in units 2 pi/alat)
               b(1) = (  1.000000  0.577350  0.000000 )  
               b(2) = (  0.000000  1.154701  0.000000 )  
               b(3) = (  0.000000  0.000000  0.320873 )  


     PseudoPot. # 1 for Si read from file:
     /home/jesus/Documentos/Nanociencia_DFT/pseudopotenciales/Si.pbe-n-rrkjus_psl.1.0.0.UPF
     MD5 check sum: fa25574f73a70a4139f2adfbefec430c
     Pseudo is Ultrasoft + core correction, Zval =  4.0
     Generated using "atomic" code by A. Dal Corso v.6.3
     Using radial grid of 1141 points,  6 beta functions with: 
                l(1) =   0
                l(2) =   0
                l(3) =   1
                l(4) =   1
                l(5) =   2
                l(6) =   2
     Q(r) pseudized with 0 coefficients 


     atomic species   valence    mass     pseudopotential
        Si             4.00    28.08550     Si( 1.00)

      6 Sym. Ops. (no inversion) found



   Cartesian axes

     site n.     atom                  positions (alat units)
         1           Si  tau(   1) = (  -0.0000000   0.5773503   1.5329382  )
         2           Si  tau(   2) = (   0.5000000   0.2886751   1.6614235  )

     number of k points=     1  Methfessel-Paxton smearing, width (Ry)=  0.0100
                       cart. coord. in units 2pi/alat
        k(    1) = (   0.0000000   0.0000000   0.0000000), wk =   2.0000000

     Dense  grid:    65193 G-vectors     FFT dimensions: (  36,  36, 120)

     Smooth grid:    23071 G-vectors     FFT dimensions: (  25,  25,  80)

     Estimated max dynamical RAM per process >     227.66 MB

     Initial potential from superposition of free atoms

     starting charge    7.99888, renormalised to    8.00000

     negative rho (up, down):  2.447E-06 0.000E+00
     Starting wfcs are    8 randomized atomic wfcs

     total cpu time spent up to now is        2.8 secs

     Self-consistent Calculation

     iteration #  1     ecut=    30.00 Ry     beta= 0.70
     Davidson diagonalization with overlap
     ethr =  1.00E-02,  avg # of iterations =  3.0

     negative rho (up, down):  1.548E-07 0.000E+00

     total cpu time spent up to now is        3.8 secs

     total energy              =     -22.27890308 Ry
     estimated scf accuracy    <       0.19174019 Ry

     iteration #  2     ecut=    30.00 Ry     beta= 0.70
     Davidson diagonalization with overlap
     ethr =  2.40E-03,  avg # of iterations =  1.0

     negative rho (up, down):  5.911E-07 0.000E+00

     total cpu time spent up to now is        4.6 secs

     total energy              =     -22.29003378 Ry
     estimated scf accuracy    <       0.00959498 Ry

     iteration #  3     ecut=    30.00 Ry     beta= 0.70
     Davidson diagonalization with overlap
     ethr =  1.20E-04,  avg # of iterations =  5.0

     negative rho (up, down):  9.990E-07 0.000E+00

     total cpu time spent up to now is        5.4 secs

     total energy              =     -22.28977345 Ry
     estimated scf accuracy    <       0.00038545 Ry

     iteration #  4     ecut=    30.00 Ry     beta= 0.70
     Davidson diagonalization with overlap
     ethr =  4.82E-06,  avg # of iterations =  4.0

     negative rho (up, down):  1.063E-06 0.000E+00

     total cpu time spent up to now is        6.1 secs

     total energy              =     -22.28980307 Ry
     estimated scf accuracy    <       0.00011201 Ry

     iteration #  5     ecut=    30.00 Ry     beta= 0.70
     Davidson diagonalization with overlap
     ethr =  1.40E-06,  avg # of iterations =  2.0

     negative rho (up, down):  1.283E-06 0.000E+00

     total cpu time spent up to now is        6.7 secs

     total energy              =     -22.28982324 Ry
     estimated scf accuracy    <       0.00000393 Ry

     iteration #  6     ecut=    30.00 Ry     beta= 0.70
     Davidson diagonalization with overlap
     ethr =  4.91E-08,  avg # of iterations =  2.0

     negative rho (up, down):  1.432E-06 0.000E+00

     total cpu time spent up to now is        7.3 secs

     End of self-consistent calculation

          k = 0.0000 0.0000 0.0000 (  2895 PWs)   bands (ev):

   -12.4423  -4.8239  -2.4286  -2.4286   0.6658   0.7383   1.5974   1.5974

     the Fermi energy is    -2.3141 ev

!    total energy              =     -22.28982407 Ry
     estimated scf accuracy    <       0.00000026 Ry
     smearing contrib. (-TS)   =       0.00115958 Ry
     internal energy E=F+TS    =     -22.29098365 Ry

     The total energy is F=E-TS. E is the sum of the following terms:
     one-electron contribution =     -37.78680556 Ry
     hartree contribution      =      20.58578827 Ry
     xc contribution           =     -12.27366358 Ry
     ewald contribution        =       7.18369722 Ry

     convergence has been achieved in   6 iterations

     Writing output data file /home/jesus/Documentos/Nanociencia_DFT/test.save/
 
     init_run     :      0.68s CPU      1.47s WALL (       1 calls)
     electrons    :      3.06s CPU      4.55s WALL (       1 calls)

     Called by init_run:
     wfcinit      :      0.02s CPU      0.22s WALL (       1 calls)
     potinit      :      0.11s CPU      0.16s WALL (       1 calls)
     hinit0       :      0.35s CPU      0.73s WALL (       1 calls)

     Called by electrons:
     c_bands      :      0.43s CPU      0.57s WALL (       6 calls)
     sum_band     :      1.17s CPU      1.80s WALL (       6 calls)
     v_of_rho     :      0.50s CPU      0.54s WALL (       7 calls)
     newd         :      1.10s CPU      1.71s WALL (       7 calls)
     mix_rho      :      0.05s CPU      0.15s WALL (       6 calls)

     Called by c_bands:
     init_us_2    :      0.02s CPU      0.02s WALL (      13 calls)
     cegterg      :      0.36s CPU      0.50s WALL (       6 calls)

     Called by *egterg:
     cdiaghg      :      0.01s CPU      0.29s WALL (      23 calls)
     h_psi        :      0.31s CPU      0.34s WALL (      24 calls)
     s_psi        :      0.01s CPU      0.01s WALL (      24 calls)
     g_psi        :      0.00s CPU      0.00s WALL (      17 calls)

     Called by h_psi:
     h_psi:calbec :      0.02s CPU      0.02s WALL (      24 calls)
     vloc_psi     :      0.28s CPU      0.31s WALL (      24 calls)
     add_vuspsi   :      0.01s CPU      0.01s WALL (      24 calls)

     General routines
     calbec       :      0.02s CPU      0.02s WALL (      30 calls)
     fft          :      0.18s CPU      0.41s WALL (      89 calls)
     ffts         :      0.01s CPU      0.01s WALL (      13 calls)
     fftw         :      0.29s CPU      0.31s WALL (     324 calls)
     interpolate  :      0.02s CPU      0.03s WALL (       7 calls)
 
     Parallel routines
 
     PWSCF        :      4.38s CPU      7.52s WALL

 
   This run was terminated on:   9:45: 8  17Mar2021            

=------------------------------------------------------------------------------=
   JOB DONE.
=------------------------------------------------------------------------------=
