
     Program PWSCF v.6.6 starts on 17Mar2021 at  9:46: 5 

     This program is part of the open-source Quantum ESPRESSO suite
     for quantum simulation of materials; please cite
         "P. Giannozzi et al., J. Phys.:Condens. Matter 21 395502 (2009);
         "P. Giannozzi et al., J. Phys.:Condens. Matter 29 465901 (2017);
          URL http://www.quantum-espresso.org", 
     in publications or presentations arising from this work. More details at
     http://www.quantum-espresso.org/quote

     Parallel version (MPI), running on     1 processors

     MPI processes distributed on     1 nodes
     Fft bands division:     nmany     =       1
     Waiting for input...
     Reading input from standard input
Warning: card &CELL ignored
Warning: card   CELL_DYNAMICS='BFGS', ignored
Warning: card   CELL_DOFREE='ALL', ignored
Warning: card / ignored

     Current dimensions of program PWSCF are:
     Max number of different atomic species (ntypx) = 10
     Max number of k-points (npk) =  40000
     Max angular momentum in pseudopotentials (lmaxx) =  3

     Subspace diagonalization in iterative solution of the eigenvalue problem:
     a serial algorithm will be used

 
     G-vector sticks info
     --------------------
     sticks:   dense  smooth     PW     G-vecs:    dense   smooth      PW
     Sum         871     433    127                65193    23071    3757
 


     bravais-lattice index     =            4
     lattice parameter (alat)  =       7.2764  a.u.
     unit-cell volume          =    1039.7733 (a.u.)^3
     number of atoms/cell      =            2
     number of atomic types    =            1
     number of electrons       =         8.00
     number of Kohn-Sham states=            8
     kinetic-energy cutoff     =      30.0000  Ry
     charge density cutoff     =     240.0000  Ry
     convergence threshold     =      1.0E-06
     mixing beta               =       0.7000
     number of iterations used =            8  plain     mixing
     Exchange-correlation= PBE
                           (   1   4   3   4   0   0   0)

     celldm(1)=   7.276356  celldm(2)=   0.000000  celldm(3)=   3.116493
     celldm(4)=   0.000000  celldm(5)=   0.000000  celldm(6)=   0.000000

     crystal axes: (cart. coord. in units of alat)
               a(1) = (   1.000000   0.000000   0.000000 )  
               a(2) = (  -0.500000   0.866025   0.000000 )  
               a(3) = (   0.000000   0.000000   3.116493 )  

     reciprocal axes: (cart. coord. in units 2 pi/alat)
               b(1) = (  1.000000  0.577350  0.000000 )  
               b(2) = (  0.000000  1.154701  0.000000 )  
               b(3) = (  0.000000  0.000000  0.320873 )  


     PseudoPot. # 1 for Si read from file:
     /home/jesus/Documentos/Nanociencia_DFT/pseudopotenciales/Si.pbe-n-rrkjus_psl.1.0.0.UPF
     MD5 check sum: fa25574f73a70a4139f2adfbefec430c
     Pseudo is Ultrasoft + core correction, Zval =  4.0
     Generated using "atomic" code by A. Dal Corso v.6.3
     Using radial grid of 1141 points,  6 beta functions with: 
                l(1) =   0
                l(2) =   0
                l(3) =   1
                l(4) =   1
                l(5) =   2
                l(6) =   2
     Q(r) pseudized with 0 coefficients 


     atomic species   valence    mass     pseudopotential
        Si             4.00    28.08550     Si( 1.00)

      6 Sym. Ops. (no inversion) found



   Cartesian axes

     site n.     atom                  positions (alat units)
         1           Si  tau(   1) = (  -0.0000000   0.5773503   1.5329382  )
         2           Si  tau(   2) = (   0.5000000   0.2886751   1.6614235  )

     number of k points=    44  Methfessel-Paxton smearing, width (Ry)=  0.0100
                       cart. coord. in units 2pi/alat
        k(    1) = (   0.0000000   0.0000000   0.0000000), wk =   0.0058309
        k(    2) = (   0.0000000   0.0000000   0.0458391), wk =   0.0116618
        k(    3) = (   0.0000000   0.0000000   0.0916781), wk =   0.0116618
        k(    4) = (   0.0000000   0.0000000   0.1375172), wk =   0.0116618
        k(    5) = (   0.0000000   0.1649572   0.0000000), wk =   0.0349854
        k(    6) = (   0.0000000   0.1649572   0.0458391), wk =   0.0349854
        k(    7) = (   0.0000000   0.1649572   0.0916781), wk =   0.0349854
        k(    8) = (   0.0000000   0.1649572   0.1375172), wk =   0.0349854
        k(    9) = (   0.0000000   0.3299144   0.0000000), wk =   0.0349854
        k(   10) = (   0.0000000   0.3299144   0.0458391), wk =   0.0349854
        k(   11) = (   0.0000000   0.3299144   0.0916781), wk =   0.0349854
        k(   12) = (   0.0000000   0.3299144   0.1375172), wk =   0.0349854
        k(   13) = (   0.0000000   0.4948717   0.0000000), wk =   0.0349854
        k(   14) = (   0.0000000   0.4948717   0.0458391), wk =   0.0349854
        k(   15) = (   0.0000000   0.4948717   0.0916781), wk =   0.0349854
        k(   16) = (   0.0000000   0.4948717   0.1375172), wk =   0.0349854
        k(   17) = (   0.1428571   0.2474358   0.0000000), wk =   0.0349854
        k(   18) = (   0.1428571   0.2474358   0.0458391), wk =   0.0699708
        k(   19) = (   0.1428571   0.2474358   0.0916781), wk =   0.0699708
        k(   20) = (   0.1428571   0.2474358   0.1375172), wk =   0.0699708
        k(   21) = (   0.1428571   0.4123930   0.0000000), wk =   0.0699708
        k(   22) = (   0.1428571   0.4123930   0.0458391), wk =   0.0699708
        k(   23) = (   0.1428571   0.4123930   0.0916781), wk =   0.0699708
        k(   24) = (   0.1428571   0.4123930   0.1375172), wk =   0.0699708
        k(   25) = (   0.1428571   0.5773503   0.0000000), wk =   0.0349854
        k(   26) = (   0.1428571   0.5773503   0.0458391), wk =   0.0699708
        k(   27) = (   0.1428571   0.5773503   0.0916781), wk =   0.0699708
        k(   28) = (   0.1428571   0.5773503   0.1375172), wk =   0.0699708
        k(   29) = (   0.2857143   0.4948717   0.0000000), wk =   0.0349854
        k(   30) = (   0.2857143   0.4948717   0.0458391), wk =   0.0699708
        k(   31) = (   0.2857143   0.4948717   0.0916781), wk =   0.0699708
        k(   32) = (   0.2857143   0.4948717   0.1375172), wk =   0.0699708
        k(   33) = (   0.0000000  -0.1649572   0.0458391), wk =   0.0349854
        k(   34) = (   0.0000000  -0.1649572   0.0916781), wk =   0.0349854
        k(   35) = (   0.0000000  -0.1649572   0.1375172), wk =   0.0349854
        k(   36) = (   0.0000000  -0.3299144   0.0458391), wk =   0.0349854
        k(   37) = (   0.0000000  -0.3299144   0.0916781), wk =   0.0349854
        k(   38) = (   0.0000000  -0.3299144   0.1375172), wk =   0.0349854
        k(   39) = (   0.0000000  -0.4948717   0.0458391), wk =   0.0349854
        k(   40) = (   0.0000000  -0.4948717   0.0916781), wk =   0.0349854
        k(   41) = (   0.0000000  -0.4948717   0.1375172), wk =   0.0349854
        k(   42) = (  -0.1428571  -0.4123930   0.0458391), wk =   0.0699708
        k(   43) = (  -0.1428571  -0.4123930   0.0916781), wk =   0.0699708
        k(   44) = (  -0.1428571  -0.4123930   0.1375172), wk =   0.0699708

     Dense  grid:    65193 G-vectors     FFT dimensions: (  36,  36, 120)

     Smooth grid:    23071 G-vectors     FFT dimensions: (  25,  25,  80)

     Estimated max dynamical RAM per process >     243.16 MB

     Initial potential from superposition of free atoms

     starting charge    7.99888, renormalised to    8.00000

     negative rho (up, down):  2.447E-06 0.000E+00
     Starting wfcs are    8 randomized atomic wfcs

     total cpu time spent up to now is        2.0 secs

     Self-consistent Calculation

     iteration #  1     ecut=    30.00 Ry     beta= 0.70
     Davidson diagonalization with overlap
     ethr =  1.00E-02,  avg # of iterations =  4.2

     Threshold (ethr) on eigenvalues was too large:
     Diagonalizing with lowered threshold

     Davidson diagonalization with overlap
     ethr =  7.70E-04,  avg # of iterations =  1.8

     negative rho (up, down):  3.730E-07 0.000E+00

     total cpu time spent up to now is        6.8 secs

     total energy              =     -22.73836720 Ry
     estimated scf accuracy    <       0.06747815 Ry

     iteration #  2     ecut=    30.00 Ry     beta= 0.70
     Davidson diagonalization with overlap
     ethr =  8.43E-04,  avg # of iterations =  2.6

     negative rho (up, down):  5.963E-07 0.000E+00

     total cpu time spent up to now is        9.1 secs

     total energy              =     -22.74544091 Ry
     estimated scf accuracy    <       0.00189108 Ry

     iteration #  3     ecut=    30.00 Ry     beta= 0.70
     Davidson diagonalization with overlap
     ethr =  2.36E-05,  avg # of iterations =  6.2

     negative rho (up, down):  6.428E-07 0.000E+00

     total cpu time spent up to now is       12.1 secs

     total energy              =     -22.74564153 Ry
     estimated scf accuracy    <       0.00011904 Ry

     iteration #  4     ecut=    30.00 Ry     beta= 0.70
     Davidson diagonalization with overlap
     ethr =  1.49E-06,  avg # of iterations =  4.2

     negative rho (up, down):  5.572E-07 0.000E+00

     total cpu time spent up to now is       14.7 secs

     total energy              =     -22.74565534 Ry
     estimated scf accuracy    <       0.00000112 Ry

     iteration #  5     ecut=    30.00 Ry     beta= 0.70
     Davidson diagonalization with overlap
     ethr =  1.40E-08,  avg # of iterations =  3.0

     negative rho (up, down):  5.051E-07 0.000E+00

     total cpu time spent up to now is       17.2 secs

     End of self-consistent calculation

          k = 0.0000 0.0000 0.0000 (  2895 PWs)   bands (ev):

   -12.7907  -4.9297  -2.8705  -2.8705   0.3247   0.7356   1.3455   1.3455

          k = 0.0000 0.0000 0.0458 (  2907 PWs)   bands (ev):

   -12.7907  -4.9298  -2.8705  -2.8705   0.3247   0.7432   1.3455   1.3455

          k = 0.0000 0.0000 0.0917 (  2908 PWs)   bands (ev):

   -12.7907  -4.9298  -2.8705  -2.8705   0.3247   0.7608   1.3455   1.3455

          k = 0.0000 0.0000 0.1375 (  2866 PWs)   bands (ev):

   -12.7907  -4.9298  -2.8705  -2.8705   0.3247   0.7757   1.3455   1.3455

          k = 0.0000 0.1650 0.0000 (  2901 PWs)   bands (ev):

   -12.5512  -4.8594  -4.1976  -3.2495   0.6006   0.8870   2.1617   2.1804

          k = 0.0000 0.1650 0.0458 (  2897 PWs)   bands (ev):

   -12.5512  -4.8594  -4.1976  -3.2495   0.6007   0.8928   2.1627   2.1804

          k = 0.0000 0.1650 0.0917 (  2901 PWs)   bands (ev):

   -12.5512  -4.8594  -4.1976  -3.2496   0.6008   0.9062   2.1642   2.1804

          k = 0.0000 0.1650 0.1375 (  2901 PWs)   bands (ev):

   -12.5512  -4.8595  -4.1976  -3.2495   0.6009   0.9174   2.1650   2.1804

          k = 0.0000 0.3299 0.0000 (  2893 PWs)   bands (ev):

   -11.8518  -6.6540  -3.9420  -3.8596  -0.1437   0.6802   2.5993   4.0345

          k = 0.0000 0.3299 0.0458 (  2892 PWs)   bands (ev):

   -11.8518  -6.6540  -3.9420  -3.8596  -0.1437   0.6806   2.6237   4.0345

          k = 0.0000 0.3299 0.0917 (  2900 PWs)   bands (ev):

   -11.8518  -6.6540  -3.9420  -3.8596  -0.1437   0.6818   2.6682   4.0344

          k = 0.0000 0.3299 0.1375 (  2891 PWs)   bands (ev):

   -11.8518  -6.6540  -3.9420  -3.8596  -0.1437   0.6830   2.7004   4.0344

          k = 0.0000 0.4949 0.0000 (  2903 PWs)   bands (ev):

   -10.8347  -8.4781  -4.2282  -3.0128  -0.8374  -0.4062   3.4034   4.8941

          k = 0.0000 0.4949 0.0458 (  2894 PWs)   bands (ev):

   -10.8347  -8.4781  -4.2282  -3.0128  -0.8374  -0.4062   3.4177   4.8942

          k = 0.0000 0.4949 0.0917 (  2879 PWs)   bands (ev):

   -10.8347  -8.4781  -4.2282  -3.0128  -0.8374  -0.4062   3.4395   4.8939

          k = 0.0000 0.4949 0.1375 (  2888 PWs)   bands (ev):

   -10.8347  -8.4781  -4.2282  -3.0128  -0.8374  -0.4062   3.4528   4.8940

          k = 0.1429 0.2474 0.0000 (  2903 PWs)   bands (ev):

   -12.0802  -5.9589  -4.1292  -4.0977   0.8131   1.5126   1.6557   2.7704

          k = 0.1429 0.2474 0.0458 (  2883 PWs)   bands (ev):

   -12.0802  -5.9589  -4.1292  -4.0977   0.8144   1.5138   1.6558   2.7875

          k = 0.1429 0.2474 0.0917 (  2886 PWs)   bands (ev):

   -12.0802  -5.9589  -4.1292  -4.0977   0.8173   1.5167   1.6558   2.8374

          k = 0.1429 0.2474 0.1375 (  2903 PWs)   bands (ev):

   -12.0802  -5.9589  -4.1293  -4.0977   0.8196   1.5190   1.6557   2.9060

          k = 0.1429 0.4124 0.0000 (  2876 PWs)   bands (ev):

   -11.1860  -7.7215  -4.9100  -3.3032  -0.1779   1.0628   3.0750   3.5235

          k = 0.1429 0.4124 0.0458 (  2882 PWs)   bands (ev):

   -11.1860  -7.7215  -4.9100  -3.3032  -0.1779   1.0628   3.0935   3.5159

          k = 0.1429 0.4124 0.0917 (  2887 PWs)   bands (ev):

   -11.1860  -7.7215  -4.9100  -3.3032  -0.1778   1.0628   3.1228   3.5137

          k = 0.1429 0.4124 0.1375 (  2889 PWs)   bands (ev):

   -11.1860  -7.7215  -4.9100  -3.3032  -0.1778   1.0629   3.1403   3.5213

          k = 0.1429 0.5774 0.0000 (  2884 PWs)   bands (ev):

   -10.3501  -8.9003  -5.1819  -2.5310  -1.1463   0.8419   3.1974   4.3740

          k = 0.1429 0.5774 0.0458 (  2878 PWs)   bands (ev):

   -10.3501  -8.9003  -5.1819  -2.5310  -1.1463   0.8418   3.1974   4.3816

          k = 0.1429 0.5774 0.0917 (  2871 PWs)   bands (ev):

   -10.3501  -8.9003  -5.1819  -2.5310  -1.1464   0.8418   3.1970   4.3984

          k = 0.1429 0.5774 0.1375 (  2870 PWs)   bands (ev):

   -10.3501  -8.9003  -5.1819  -2.5310  -1.1464   0.8418   3.1968   4.4131

          k = 0.2857 0.4949 0.0000 (  2866 PWs)   bands (ev):

   -10.1768  -8.8362  -5.9441  -2.3504  -1.1237   2.4697   3.3241   3.7566

          k = 0.2857 0.4949 0.0458 (  2883 PWs)   bands (ev):

   -10.1768  -8.8362  -5.9441  -2.3505  -1.1237   2.4694   3.3241   3.7567

          k = 0.2857 0.4949 0.0917 (  2863 PWs)   bands (ev):

   -10.1768  -8.8362  -5.9441  -2.3505  -1.1237   2.4690   3.3243   3.7567

          k = 0.2857 0.4949 0.1375 (  2866 PWs)   bands (ev):

   -10.1768  -8.8362  -5.9441  -2.3505  -1.1237   2.4686   3.3244   3.7567

          k = 0.0000-0.1650 0.0458 (  2897 PWs)   bands (ev):

   -12.5512  -4.8594  -4.1976  -3.2495   0.6008   0.8929   2.1617   2.1804

          k = 0.0000-0.1650 0.0917 (  2901 PWs)   bands (ev):

   -12.5512  -4.8594  -4.1976  -3.2496   0.6009   0.9063   2.1629   2.1804

          k = 0.0000-0.1650 0.1375 (  2901 PWs)   bands (ev):

   -12.5512  -4.8595  -4.1976  -3.2495   0.6010   0.9175   2.1645   2.1804

          k = 0.0000-0.3299 0.0458 (  2892 PWs)   bands (ev):

   -11.8518  -6.6540  -3.9420  -3.8596  -0.1437   0.6811   2.6065   4.0345

          k = 0.0000-0.3299 0.0917 (  2900 PWs)   bands (ev):

   -11.8518  -6.6540  -3.9420  -3.8596  -0.1437   0.6824   2.6424   4.0344

          k = 0.0000-0.3299 0.1375 (  2891 PWs)   bands (ev):

   -11.8518  -6.6540  -3.9420  -3.8596  -0.1437   0.6833   2.6870   4.0345

          k = 0.0000-0.4949 0.0458 (  2894 PWs)   bands (ev):

   -10.8347  -8.4781  -4.2282  -3.0128  -0.8374  -0.4062   3.4065   4.8941

          k = 0.0000-0.4949 0.0917 (  2879 PWs)   bands (ev):

   -10.8347  -8.4781  -4.2282  -3.0128  -0.8374  -0.4062   3.4248   4.8941

          k = 0.0000-0.4949 0.1375 (  2888 PWs)   bands (ev):

   -10.8347  -8.4781  -4.2282  -3.0129  -0.8374  -0.4062   3.4457   4.8941

          k =-0.1429-0.4124 0.0458 (  2882 PWs)   bands (ev):

   -11.1860  -7.7215  -4.9100  -3.3032  -0.1778   1.0628   3.0789   3.5321

          k =-0.1429-0.4124 0.0917 (  2887 PWs)   bands (ev):

   -11.1860  -7.7215  -4.9100  -3.3032  -0.1778   1.0628   3.1020   3.5372

          k =-0.1429-0.4124 0.1375 (  2889 PWs)   bands (ev):

   -11.1860  -7.7215  -4.9100  -3.3032  -0.1778   1.0628   3.1296   3.5330

     the Fermi energy is    -1.2514 ev

!    total energy              =     -22.74565602 Ry
     estimated scf accuracy    <       0.00000039 Ry
     smearing contrib. (-TS)   =       0.00014590 Ry
     internal energy E=F+TS    =     -22.74580192 Ry

     The total energy is F=E-TS. E is the sum of the following terms:
     one-electron contribution =     -38.14633923 Ry
     hartree contribution      =      20.36483211 Ry
     xc contribution           =     -12.14799201 Ry
     ewald contribution        =       7.18369722 Ry

     convergence has been achieved in   5 iterations

     Writing output data file /home/jesus/Documentos/Nanociencia_DFT/test.save/
 
     init_run     :      1.21s CPU      1.39s WALL (       1 calls)
     electrons    :     14.32s CPU     15.20s WALL (       1 calls)

     Called by init_run:
     wfcinit      :      0.57s CPU      0.58s WALL (       1 calls)
     potinit      :      0.12s CPU      0.14s WALL (       1 calls)
     hinit0       :      0.30s CPU      0.32s WALL (       1 calls)

     Called by electrons:
     c_bands      :     10.65s CPU     10.67s WALL (       6 calls)
     sum_band     :      2.59s CPU      3.01s WALL (       6 calls)
     v_of_rho     :      0.42s CPU      0.44s WALL (       6 calls)
     newd         :      0.88s CPU      1.41s WALL (       6 calls)
     mix_rho      :      0.03s CPU      0.03s WALL (       6 calls)

     Called by c_bands:
     init_us_2    :      0.47s CPU      0.47s WALL (     572 calls)
     cegterg      :      8.36s CPU      8.39s WALL (     264 calls)

     Called by *egterg:
     cdiaghg      :      0.14s CPU      0.14s WALL (    1192 calls)
     h_psi        :      7.61s CPU      7.63s WALL (    1280 calls)
     s_psi        :      0.28s CPU      0.28s WALL (    1280 calls)
     g_psi        :      0.04s CPU      0.04s WALL (     972 calls)

     Called by h_psi:
     h_psi:calbec :      0.38s CPU      0.38s WALL (    1280 calls)
     vloc_psi     :      6.86s CPU      6.88s WALL (    1280 calls)
     add_vuspsi   :      0.32s CPU      0.32s WALL (    1280 calls)

     General routines
     calbec       :      0.48s CPU      0.48s WALL (    1544 calls)
     fft          :      0.16s CPU      0.18s WALL (      77 calls)
     ffts         :      0.01s CPU      0.01s WALL (      12 calls)
     fftw         :      7.07s CPU      7.09s WALL (   14878 calls)
     interpolate  :      0.02s CPU      0.02s WALL (       6 calls)
 
     Parallel routines
 
     PWSCF        :     16.19s CPU     17.30s WALL

 
   This run was terminated on:   9:46:22  17Mar2021            

=------------------------------------------------------------------------------=
   JOB DONE.
=------------------------------------------------------------------------------=
