
     Program PWSCF v.6.6 starts on 17Mar2021 at  9:45: 9 

     This program is part of the open-source Quantum ESPRESSO suite
     for quantum simulation of materials; please cite
         "P. Giannozzi et al., J. Phys.:Condens. Matter 21 395502 (2009);
         "P. Giannozzi et al., J. Phys.:Condens. Matter 29 465901 (2017);
          URL http://www.quantum-espresso.org", 
     in publications or presentations arising from this work. More details at
     http://www.quantum-espresso.org/quote

     Parallel version (MPI), running on     1 processors

     MPI processes distributed on     1 nodes
     Fft bands division:     nmany     =       1
     Waiting for input...
     Reading input from standard input
Warning: card &CELL ignored
Warning: card   CELL_DYNAMICS='BFGS', ignored
Warning: card   CELL_DOFREE='ALL', ignored
Warning: card / ignored

     Current dimensions of program PWSCF are:
     Max number of different atomic species (ntypx) = 10
     Max number of k-points (npk) =  40000
     Max angular momentum in pseudopotentials (lmaxx) =  3

     Subspace diagonalization in iterative solution of the eigenvalue problem:
     a serial algorithm will be used

 
     G-vector sticks info
     --------------------
     sticks:   dense  smooth     PW     G-vecs:    dense   smooth      PW
     Sum         871     433    127                65193    23071    3757
 


     bravais-lattice index     =            4
     lattice parameter (alat)  =       7.2764  a.u.
     unit-cell volume          =    1039.7733 (a.u.)^3
     number of atoms/cell      =            2
     number of atomic types    =            1
     number of electrons       =         8.00
     number of Kohn-Sham states=            8
     kinetic-energy cutoff     =      30.0000  Ry
     charge density cutoff     =     240.0000  Ry
     convergence threshold     =      1.0E-06
     mixing beta               =       0.7000
     number of iterations used =            8  plain     mixing
     Exchange-correlation= PBE
                           (   1   4   3   4   0   0   0)

     celldm(1)=   7.276356  celldm(2)=   0.000000  celldm(3)=   3.116493
     celldm(4)=   0.000000  celldm(5)=   0.000000  celldm(6)=   0.000000

     crystal axes: (cart. coord. in units of alat)
               a(1) = (   1.000000   0.000000   0.000000 )  
               a(2) = (  -0.500000   0.866025   0.000000 )  
               a(3) = (   0.000000   0.000000   3.116493 )  

     reciprocal axes: (cart. coord. in units 2 pi/alat)
               b(1) = (  1.000000  0.577350  0.000000 )  
               b(2) = (  0.000000  1.154701  0.000000 )  
               b(3) = (  0.000000  0.000000  0.320873 )  


     PseudoPot. # 1 for Si read from file:
     /home/jesus/Documentos/Nanociencia_DFT/pseudopotenciales/Si.pbe-n-rrkjus_psl.1.0.0.UPF
     MD5 check sum: fa25574f73a70a4139f2adfbefec430c
     Pseudo is Ultrasoft + core correction, Zval =  4.0
     Generated using "atomic" code by A. Dal Corso v.6.3
     Using radial grid of 1141 points,  6 beta functions with: 
                l(1) =   0
                l(2) =   0
                l(3) =   1
                l(4) =   1
                l(5) =   2
                l(6) =   2
     Q(r) pseudized with 0 coefficients 


     atomic species   valence    mass     pseudopotential
        Si             4.00    28.08550     Si( 1.00)

      6 Sym. Ops. (no inversion) found



   Cartesian axes

     site n.     atom                  positions (alat units)
         1           Si  tau(   1) = (  -0.0000000   0.5773503   1.5329382  )
         2           Si  tau(   2) = (   0.5000000   0.2886751   1.6614235  )

     number of k points=     4  Methfessel-Paxton smearing, width (Ry)=  0.0100
                       cart. coord. in units 2pi/alat
        k(    1) = (   0.0000000   0.0000000   0.0000000), wk =   0.2500000
        k(    2) = (   0.0000000   0.0000000  -0.1604367), wk =   0.2500000
        k(    3) = (   0.0000000  -0.5773503   0.0000000), wk =   0.7500000
        k(    4) = (   0.0000000  -0.5773503  -0.1604367), wk =   0.7500000

     Dense  grid:    65193 G-vectors     FFT dimensions: (  36,  36, 120)

     Smooth grid:    23071 G-vectors     FFT dimensions: (  25,  25,  80)

     Estimated max dynamical RAM per process >     229.07 MB

     Initial potential from superposition of free atoms

     starting charge    7.99888, renormalised to    8.00000

     negative rho (up, down):  2.447E-06 0.000E+00
     Starting wfcs are    8 randomized atomic wfcs

     total cpu time spent up to now is        1.6 secs

     Self-consistent Calculation

     iteration #  1     ecut=    30.00 Ry     beta= 0.70
     Davidson diagonalization with overlap
     ethr =  1.00E-02,  avg # of iterations =  4.5

     negative rho (up, down):  2.579E-08 0.000E+00

     total cpu time spent up to now is        2.3 secs

     total energy              =     -22.61948347 Ry
     estimated scf accuracy    <       0.09172999 Ry

     iteration #  2     ecut=    30.00 Ry     beta= 0.70
     Davidson diagonalization with overlap
     ethr =  1.15E-03,  avg # of iterations =  2.0

     negative rho (up, down):  3.194E-07 0.000E+00

     total cpu time spent up to now is        3.1 secs

     total energy              =     -22.62664197 Ry
     estimated scf accuracy    <       0.00347557 Ry

     iteration #  3     ecut=    30.00 Ry     beta= 0.70
     Davidson diagonalization with overlap
     ethr =  4.34E-05,  avg # of iterations =  5.0

     negative rho (up, down):  8.275E-07 0.000E+00

     total cpu time spent up to now is        3.8 secs

     total energy              =     -22.62696602 Ry
     estimated scf accuracy    <       0.00016304 Ry

     iteration #  4     ecut=    30.00 Ry     beta= 0.70
     Davidson diagonalization with overlap
     ethr =  2.04E-06,  avg # of iterations =  4.5

     negative rho (up, down):  7.498E-07 0.000E+00

     total cpu time spent up to now is        4.6 secs

     End of self-consistent calculation

          k = 0.0000 0.0000 0.0000 (  2895 PWs)   bands (ev):

   -12.5612  -4.7489  -2.6066  -2.6066   0.5322   0.8149   1.5252   1.5252

          k = 0.0000 0.0000-0.1604 (  2872 PWs)   bands (ev):

   -12.5612  -4.7490  -2.6066  -2.6066   0.5322   0.8642   1.5252   1.5253

          k = 0.0000-0.5774 0.0000 (  2888 PWs)   bands (ev):

   -10.3044  -8.6427  -4.0383  -2.5710  -0.9293  -0.3389   3.8641   5.0655

          k = 0.0000-0.5774-0.1604 (  2880 PWs)   bands (ev):

   -10.3044  -8.6427  -4.0383  -2.5710  -0.9294  -0.3389   3.8905   5.0653

     the Fermi energy is    -1.0439 ev

!    total energy              =     -22.62699115 Ry
     estimated scf accuracy    <       0.00000074 Ry
     smearing contrib. (-TS)   =       0.00043484 Ry
     internal energy E=F+TS    =     -22.62742599 Ry

     The total energy is F=E-TS. E is the sum of the following terms:
     one-electron contribution =     -38.11605654 Ry
     hartree contribution      =      20.50977039 Ry
     xc contribution           =     -12.20483705 Ry
     ewald contribution        =       7.18369722 Ry

     convergence has been achieved in   4 iterations

     Writing output data file /home/jesus/Documentos/Nanociencia_DFT/test.save/
 
     init_run     :      0.71s CPU      0.89s WALL (       1 calls)
     electrons    :      2.46s CPU      3.07s WALL (       1 calls)

     Called by init_run:
     wfcinit      :      0.06s CPU      0.07s WALL (       1 calls)
     potinit      :      0.12s CPU      0.14s WALL (       1 calls)
     hinit0       :      0.31s CPU      0.33s WALL (       1 calls)

     Called by electrons:
     c_bands      :      0.70s CPU      0.71s WALL (       4 calls)
     sum_band     :      0.80s CPU      1.11s WALL (       4 calls)
     v_of_rho     :      0.35s CPU      0.37s WALL (       5 calls)
     newd         :      0.83s CPU      1.24s WALL (       5 calls)
     mix_rho      :      0.02s CPU      0.02s WALL (       4 calls)

     Called by c_bands:
     init_us_2    :      0.03s CPU      0.03s WALL (      36 calls)
     cegterg      :      0.56s CPU      0.57s WALL (      16 calls)

     Called by *egterg:
     cdiaghg      :      0.01s CPU      0.01s WALL (      80 calls)
     h_psi        :      0.53s CPU      0.54s WALL (      84 calls)
     s_psi        :      0.02s CPU      0.02s WALL (      84 calls)
     g_psi        :      0.00s CPU      0.00s WALL (      64 calls)

     Called by h_psi:
     h_psi:calbec :      0.03s CPU      0.03s WALL (      84 calls)
     vloc_psi     :      0.48s CPU      0.49s WALL (      84 calls)
     add_vuspsi   :      0.02s CPU      0.02s WALL (      84 calls)

     General routines
     calbec       :      0.03s CPU      0.03s WALL (     100 calls)
     fft          :      0.13s CPU      0.15s WALL (      63 calls)
     ffts         :      0.00s CPU      0.00s WALL (       9 calls)
     fftw         :      0.48s CPU      0.49s WALL (     980 calls)
     interpolate  :      0.02s CPU      0.02s WALL (       5 calls)
 
     Parallel routines
 
     PWSCF        :      3.83s CPU      4.73s WALL

 
   This run was terminated on:   9:45:14  17Mar2021            

=------------------------------------------------------------------------------=
   JOB DONE.
=------------------------------------------------------------------------------=
