
     Program PWSCF v.6.6 starts on 17Mar2021 at  9:48: 8 

     This program is part of the open-source Quantum ESPRESSO suite
     for quantum simulation of materials; please cite
         "P. Giannozzi et al., J. Phys.:Condens. Matter 21 395502 (2009);
         "P. Giannozzi et al., J. Phys.:Condens. Matter 29 465901 (2017);
          URL http://www.quantum-espresso.org", 
     in publications or presentations arising from this work. More details at
     http://www.quantum-espresso.org/quote

     Parallel version (MPI), running on     1 processors

     MPI processes distributed on     1 nodes
     Fft bands division:     nmany     =       1
     Waiting for input...
     Reading input from standard input
Warning: card &CELL ignored
Warning: card   CELL_DYNAMICS='BFGS', ignored
Warning: card   CELL_DOFREE='ALL', ignored
Warning: card / ignored

     Current dimensions of program PWSCF are:
     Max number of different atomic species (ntypx) = 10
     Max number of k-points (npk) =  40000
     Max angular momentum in pseudopotentials (lmaxx) =  3

     Subspace diagonalization in iterative solution of the eigenvalue problem:
     a serial algorithm will be used

 
     G-vector sticks info
     --------------------
     sticks:   dense  smooth     PW     G-vecs:    dense   smooth      PW
     Sum         871     433    127                65193    23071    3817
 


     bravais-lattice index     =            4
     lattice parameter (alat)  =       7.2764  a.u.
     unit-cell volume          =    1039.7733 (a.u.)^3
     number of atoms/cell      =            2
     number of atomic types    =            1
     number of electrons       =         8.00
     number of Kohn-Sham states=            8
     kinetic-energy cutoff     =      30.0000  Ry
     charge density cutoff     =     240.0000  Ry
     convergence threshold     =      1.0E-06
     mixing beta               =       0.7000
     number of iterations used =            8  plain     mixing
     Exchange-correlation= PBE
                           (   1   4   3   4   0   0   0)

     celldm(1)=   7.276356  celldm(2)=   0.000000  celldm(3)=   3.116493
     celldm(4)=   0.000000  celldm(5)=   0.000000  celldm(6)=   0.000000

     crystal axes: (cart. coord. in units of alat)
               a(1) = (   1.000000   0.000000   0.000000 )  
               a(2) = (  -0.500000   0.866025   0.000000 )  
               a(3) = (   0.000000   0.000000   3.116493 )  

     reciprocal axes: (cart. coord. in units 2 pi/alat)
               b(1) = (  1.000000  0.577350  0.000000 )  
               b(2) = (  0.000000  1.154701  0.000000 )  
               b(3) = (  0.000000  0.000000  0.320873 )  


     PseudoPot. # 1 for Si read from file:
     /home/jesus/Documentos/Nanociencia_DFT/pseudopotenciales/Si.pbe-n-rrkjus_psl.1.0.0.UPF
     MD5 check sum: fa25574f73a70a4139f2adfbefec430c
     Pseudo is Ultrasoft + core correction, Zval =  4.0
     Generated using "atomic" code by A. Dal Corso v.6.3
     Using radial grid of 1141 points,  6 beta functions with: 
                l(1) =   0
                l(2) =   0
                l(3) =   1
                l(4) =   1
                l(5) =   2
                l(6) =   2
     Q(r) pseudized with 0 coefficients 


     atomic species   valence    mass     pseudopotential
        Si             4.00    28.08550     Si( 1.00)

      6 Sym. Ops. (no inversion) found



   Cartesian axes

     site n.     atom                  positions (alat units)
         1           Si  tau(   1) = (  -0.0000000   0.5773503   1.5329382  )
         2           Si  tau(   2) = (   0.5000000   0.2886751   1.6614235  )

     number of k points=   146  Methfessel-Paxton smearing, width (Ry)=  0.0100

     Number of k-points >= 100: set verbosity='high' to print them.

     Dense  grid:    65193 G-vectors     FFT dimensions: (  36,  36, 120)

     Smooth grid:    23071 G-vectors     FFT dimensions: (  25,  25,  80)

     Estimated max dynamical RAM per process >     279.08 MB

     Initial potential from superposition of free atoms

     starting charge    7.99888, renormalised to    8.00000

     negative rho (up, down):  2.447E-06 0.000E+00
     Starting wfcs are    8 randomized atomic wfcs

     total cpu time spent up to now is        3.4 secs

     Self-consistent Calculation

     iteration #  1     ecut=    30.00 Ry     beta= 0.70
     Davidson diagonalization with overlap
     ethr =  1.00E-02,  avg # of iterations =  4.7

     Threshold (ethr) on eigenvalues was too large:
     Diagonalizing with lowered threshold

     Davidson diagonalization with overlap
     ethr =  7.70E-04,  avg # of iterations =  1.3

     negative rho (up, down):  3.907E-07 0.000E+00

     total cpu time spent up to now is       18.2 secs

     total energy              =     -22.73829157 Ry
     estimated scf accuracy    <       0.06747321 Ry

     iteration #  2     ecut=    30.00 Ry     beta= 0.70
     Davidson diagonalization with overlap
     ethr =  8.43E-04,  avg # of iterations =  2.7

     negative rho (up, down):  5.857E-07 0.000E+00

     total cpu time spent up to now is       25.2 secs

     total energy              =     -22.74548560 Ry
     estimated scf accuracy    <       0.00186991 Ry

     iteration #  3     ecut=    30.00 Ry     beta= 0.70
     Davidson diagonalization with overlap
     ethr =  2.34E-05,  avg # of iterations =  7.7

     negative rho (up, down):  5.955E-07 0.000E+00

     total cpu time spent up to now is       34.5 secs

     total energy              =     -22.74568150 Ry
     estimated scf accuracy    <       0.00011876 Ry

     iteration #  4     ecut=    30.00 Ry     beta= 0.70
     Davidson diagonalization with overlap
     c_bands:  1 eigenvalues not converged
     c_bands:  1 eigenvalues not converged
     c_bands:  1 eigenvalues not converged
     c_bands:  1 eigenvalues not converged
     ethr =  1.48E-06,  avg # of iterations =  6.3

     negative rho (up, down):  5.524E-07 0.000E+00

     total cpu time spent up to now is       42.8 secs

     total energy              =     -22.74569452 Ry
     estimated scf accuracy    <       0.00000205 Ry

     iteration #  5     ecut=    30.00 Ry     beta= 0.70
     Davidson diagonalization with overlap
     ethr =  2.56E-08,  avg # of iterations =  2.5

     negative rho (up, down):  5.355E-07 0.000E+00

     total cpu time spent up to now is       49.6 secs

     total energy              =     -22.74569529 Ry
     estimated scf accuracy    <       0.00000200 Ry

     iteration #  6     ecut=    30.00 Ry     beta= 0.70
     Davidson diagonalization with overlap
     ethr =  2.50E-08,  avg # of iterations =  1.2

     negative rho (up, down):  5.075E-07 0.000E+00

     total cpu time spent up to now is       57.3 secs

     End of self-consistent calculation

     Number of k-points >= 100: set verbosity='high' to print the bands.

     the Fermi energy is    -1.5491 ev

!    total energy              =     -22.74569563 Ry
     estimated scf accuracy    <       0.00000006 Ry
     smearing contrib. (-TS)   =       0.00002885 Ry
     internal energy E=F+TS    =     -22.74572448 Ry

     The total energy is F=E-TS. E is the sum of the following terms:
     one-electron contribution =     -38.14582845 Ry
     hartree contribution      =      20.36405758 Ry
     xc contribution           =     -12.14765083 Ry
     ewald contribution        =       7.18369722 Ry

     convergence has been achieved in   6 iterations

     Writing output data file /home/jesus/Documentos/Nanociencia_DFT/test.save/
 
     init_run     :      2.49s CPU      2.64s WALL (       1 calls)
     electrons    :     52.46s CPU     53.86s WALL (       1 calls)

     Called by init_run:
     wfcinit      :      1.89s CPU      1.92s WALL (       1 calls)
     potinit      :      0.10s CPU      0.11s WALL (       1 calls)
     hinit0       :      0.26s CPU      0.29s WALL (       1 calls)

     Called by electrons:
     c_bands      :     43.53s CPU     43.81s WALL (       7 calls)
     sum_band     :      7.59s CPU      8.15s WALL (       7 calls)
     v_of_rho     :      0.48s CPU      0.49s WALL (       7 calls)
     newd         :      1.00s CPU      1.63s WALL (       7 calls)
     mix_rho      :      0.04s CPU      0.04s WALL (       7 calls)

     Called by c_bands:
     init_us_2    :      1.90s CPU      1.93s WALL (    2190 calls)
     cegterg      :     34.19s CPU     34.41s WALL (    1022 calls)

     Called by *egterg:
     cdiaghg      :      0.58s CPU      0.59s WALL (    4726 calls)
     h_psi        :     30.73s CPU     30.93s WALL (    5018 calls)
     s_psi        :      1.18s CPU      1.20s WALL (    5018 calls)
     g_psi        :      0.15s CPU      0.15s WALL (    3850 calls)

     Called by h_psi:
     h_psi:calbec :      1.53s CPU      1.54s WALL (    5018 calls)
     vloc_psi     :     27.69s CPU     27.87s WALL (    5018 calls)
     add_vuspsi   :      1.31s CPU      1.33s WALL (    5018 calls)

     General routines
     calbec       :      1.93s CPU      1.95s WALL (    6040 calls)
     fft          :      0.17s CPU      0.19s WALL (      90 calls)
     ffts         :      0.01s CPU      0.01s WALL (      14 calls)
     fftw         :     28.29s CPU     28.47s WALL (   56094 calls)
     interpolate  :      0.02s CPU      0.02s WALL (       7 calls)
 
     Parallel routines
 
     PWSCF        :     55.64s CPU     57.49s WALL

 
   This run was terminated on:   9:49: 6  17Mar2021            

=------------------------------------------------------------------------------=
   JOB DONE.
=------------------------------------------------------------------------------=
