
     Program PWSCF v.6.6 starts on 17Mar2021 at  9:46:49 

     This program is part of the open-source Quantum ESPRESSO suite
     for quantum simulation of materials; please cite
         "P. Giannozzi et al., J. Phys.:Condens. Matter 21 395502 (2009);
         "P. Giannozzi et al., J. Phys.:Condens. Matter 29 465901 (2017);
          URL http://www.quantum-espresso.org", 
     in publications or presentations arising from this work. More details at
     http://www.quantum-espresso.org/quote

     Parallel version (MPI), running on     1 processors

     MPI processes distributed on     1 nodes
     Fft bands division:     nmany     =       1
     Waiting for input...
     Reading input from standard input
Warning: card &CELL ignored
Warning: card   CELL_DYNAMICS='BFGS', ignored
Warning: card   CELL_DOFREE='ALL', ignored
Warning: card / ignored

     Current dimensions of program PWSCF are:
     Max number of different atomic species (ntypx) = 10
     Max number of k-points (npk) =  40000
     Max angular momentum in pseudopotentials (lmaxx) =  3

     Subspace diagonalization in iterative solution of the eigenvalue problem:
     a serial algorithm will be used

 
     G-vector sticks info
     --------------------
     sticks:   dense  smooth     PW     G-vecs:    dense   smooth      PW
     Sum         871     433    139                65193    23071    3841
 


     bravais-lattice index     =            4
     lattice parameter (alat)  =       7.2764  a.u.
     unit-cell volume          =    1039.7733 (a.u.)^3
     number of atoms/cell      =            2
     number of atomic types    =            1
     number of electrons       =         8.00
     number of Kohn-Sham states=            8
     kinetic-energy cutoff     =      30.0000  Ry
     charge density cutoff     =     240.0000  Ry
     convergence threshold     =      1.0E-06
     mixing beta               =       0.7000
     number of iterations used =            8  plain     mixing
     Exchange-correlation= PBE
                           (   1   4   3   4   0   0   0)

     celldm(1)=   7.276356  celldm(2)=   0.000000  celldm(3)=   3.116493
     celldm(4)=   0.000000  celldm(5)=   0.000000  celldm(6)=   0.000000

     crystal axes: (cart. coord. in units of alat)
               a(1) = (   1.000000   0.000000   0.000000 )  
               a(2) = (  -0.500000   0.866025   0.000000 )  
               a(3) = (   0.000000   0.000000   3.116493 )  

     reciprocal axes: (cart. coord. in units 2 pi/alat)
               b(1) = (  1.000000  0.577350  0.000000 )  
               b(2) = (  0.000000  1.154701  0.000000 )  
               b(3) = (  0.000000  0.000000  0.320873 )  


     PseudoPot. # 1 for Si read from file:
     /home/jesus/Documentos/Nanociencia_DFT/pseudopotenciales/Si.pbe-n-rrkjus_psl.1.0.0.UPF
     MD5 check sum: fa25574f73a70a4139f2adfbefec430c
     Pseudo is Ultrasoft + core correction, Zval =  4.0
     Generated using "atomic" code by A. Dal Corso v.6.3
     Using radial grid of 1141 points,  6 beta functions with: 
                l(1) =   0
                l(2) =   0
                l(3) =   1
                l(4) =   1
                l(5) =   2
                l(6) =   2
     Q(r) pseudized with 0 coefficients 


     atomic species   valence    mass     pseudopotential
        Si             4.00    28.08550     Si( 1.00)

      6 Sym. Ops. (no inversion) found



   Cartesian axes

     site n.     atom                  positions (alat units)
         1           Si  tau(   1) = (  -0.0000000   0.5773503   1.5329382  )
         2           Si  tau(   2) = (   0.5000000   0.2886751   1.6614235  )

     number of k points=    88  Methfessel-Paxton smearing, width (Ry)=  0.0100
                       cart. coord. in units 2pi/alat
        k(    1) = (   0.0000000   0.0000000   0.0000000), wk =   0.0027435
        k(    2) = (   0.0000000   0.0000000   0.0356526), wk =   0.0054870
        k(    3) = (   0.0000000   0.0000000   0.0713052), wk =   0.0054870
        k(    4) = (   0.0000000   0.0000000   0.1069578), wk =   0.0054870
        k(    5) = (   0.0000000   0.0000000   0.1426104), wk =   0.0054870
        k(    6) = (   0.0000000   0.1283001   0.0000000), wk =   0.0164609
        k(    7) = (   0.0000000   0.1283001   0.0356526), wk =   0.0164609
        k(    8) = (   0.0000000   0.1283001   0.0713052), wk =   0.0164609
        k(    9) = (   0.0000000   0.1283001   0.1069578), wk =   0.0164609
        k(   10) = (   0.0000000   0.1283001   0.1426104), wk =   0.0164609
        k(   11) = (   0.0000000   0.2566001   0.0000000), wk =   0.0164609
        k(   12) = (   0.0000000   0.2566001   0.0356526), wk =   0.0164609
        k(   13) = (   0.0000000   0.2566001   0.0713052), wk =   0.0164609
        k(   14) = (   0.0000000   0.2566001   0.1069578), wk =   0.0164609
        k(   15) = (   0.0000000   0.2566001   0.1426104), wk =   0.0164609
        k(   16) = (   0.0000000   0.3849002   0.0000000), wk =   0.0164609
        k(   17) = (   0.0000000   0.3849002   0.0356526), wk =   0.0164609
        k(   18) = (   0.0000000   0.3849002   0.0713052), wk =   0.0164609
        k(   19) = (   0.0000000   0.3849002   0.1069578), wk =   0.0164609
        k(   20) = (   0.0000000   0.3849002   0.1426104), wk =   0.0164609
        k(   21) = (   0.0000000   0.5132002   0.0000000), wk =   0.0164609
        k(   22) = (   0.0000000   0.5132002   0.0356526), wk =   0.0164609
        k(   23) = (   0.0000000   0.5132002   0.0713052), wk =   0.0164609
        k(   24) = (   0.0000000   0.5132002   0.1069578), wk =   0.0164609
        k(   25) = (   0.0000000   0.5132002   0.1426104), wk =   0.0164609
        k(   26) = (   0.1111111   0.1924501   0.0000000), wk =   0.0164609
        k(   27) = (   0.1111111   0.1924501   0.0356526), wk =   0.0329218
        k(   28) = (   0.1111111   0.1924501   0.0713052), wk =   0.0329218
        k(   29) = (   0.1111111   0.1924501   0.1069578), wk =   0.0329218
        k(   30) = (   0.1111111   0.1924501   0.1426104), wk =   0.0329218
        k(   31) = (   0.1111111   0.3207501   0.0000000), wk =   0.0329218
        k(   32) = (   0.1111111   0.3207501   0.0356526), wk =   0.0329218
        k(   33) = (   0.1111111   0.3207501   0.0713052), wk =   0.0329218
        k(   34) = (   0.1111111   0.3207501   0.1069578), wk =   0.0329218
        k(   35) = (   0.1111111   0.3207501   0.1426104), wk =   0.0329218
        k(   36) = (   0.1111111   0.4490502   0.0000000), wk =   0.0329218
        k(   37) = (   0.1111111   0.4490502   0.0356526), wk =   0.0329218
        k(   38) = (   0.1111111   0.4490502   0.0713052), wk =   0.0329218
        k(   39) = (   0.1111111   0.4490502   0.1069578), wk =   0.0329218
        k(   40) = (   0.1111111   0.4490502   0.1426104), wk =   0.0329218
        k(   41) = (   0.1111111   0.5773503   0.0000000), wk =   0.0164609
        k(   42) = (   0.1111111   0.5773503   0.0356526), wk =   0.0329218
        k(   43) = (   0.1111111   0.5773503   0.0713052), wk =   0.0329218
        k(   44) = (   0.1111111   0.5773503   0.1069578), wk =   0.0329218
        k(   45) = (   0.1111111   0.5773503   0.1426104), wk =   0.0329218
        k(   46) = (   0.2222222   0.3849002   0.0000000), wk =   0.0164609
        k(   47) = (   0.2222222   0.3849002   0.0356526), wk =   0.0329218
        k(   48) = (   0.2222222   0.3849002   0.0713052), wk =   0.0329218
        k(   49) = (   0.2222222   0.3849002   0.1069578), wk =   0.0329218
        k(   50) = (   0.2222222   0.3849002   0.1426104), wk =   0.0329218
        k(   51) = (   0.2222222   0.5132002   0.0000000), wk =   0.0329218
        k(   52) = (   0.2222222   0.5132002   0.0356526), wk =   0.0329218
        k(   53) = (   0.2222222   0.5132002   0.0713052), wk =   0.0329218
        k(   54) = (   0.2222222   0.5132002   0.1069578), wk =   0.0329218
        k(   55) = (   0.2222222   0.5132002   0.1426104), wk =   0.0329218
        k(   56) = (   0.3333333   0.5773503   0.0000000), wk =   0.0054870
        k(   57) = (   0.3333333   0.5773503   0.0356526), wk =   0.0109739
        k(   58) = (   0.3333333   0.5773503   0.0713052), wk =   0.0109739
        k(   59) = (   0.3333333   0.5773503   0.1069578), wk =   0.0109739
        k(   60) = (   0.3333333   0.5773503   0.1426104), wk =   0.0109739
        k(   61) = (   0.0000000  -0.1283001   0.0356526), wk =   0.0164609
        k(   62) = (   0.0000000  -0.1283001   0.0713052), wk =   0.0164609
        k(   63) = (   0.0000000  -0.1283001   0.1069578), wk =   0.0164609
        k(   64) = (   0.0000000  -0.1283001   0.1426104), wk =   0.0164609
        k(   65) = (   0.0000000  -0.2566001   0.0356526), wk =   0.0164609
        k(   66) = (   0.0000000  -0.2566001   0.0713052), wk =   0.0164609
        k(   67) = (   0.0000000  -0.2566001   0.1069578), wk =   0.0164609
        k(   68) = (   0.0000000  -0.2566001   0.1426104), wk =   0.0164609
        k(   69) = (   0.0000000  -0.3849002   0.0356526), wk =   0.0164609
        k(   70) = (   0.0000000  -0.3849002   0.0713052), wk =   0.0164609
        k(   71) = (   0.0000000  -0.3849002   0.1069578), wk =   0.0164609
        k(   72) = (   0.0000000  -0.3849002   0.1426104), wk =   0.0164609
        k(   73) = (   0.0000000  -0.5132002   0.0356526), wk =   0.0164609
        k(   74) = (   0.0000000  -0.5132002   0.0713052), wk =   0.0164609
        k(   75) = (   0.0000000  -0.5132002   0.1069578), wk =   0.0164609
        k(   76) = (   0.0000000  -0.5132002   0.1426104), wk =   0.0164609
        k(   77) = (  -0.1111111  -0.3207501   0.0356526), wk =   0.0329218
        k(   78) = (  -0.1111111  -0.3207501   0.0713052), wk =   0.0329218
        k(   79) = (  -0.1111111  -0.3207501   0.1069578), wk =   0.0329218
        k(   80) = (  -0.1111111  -0.3207501   0.1426104), wk =   0.0329218
        k(   81) = (  -0.1111111  -0.4490502   0.0356526), wk =   0.0329218
        k(   82) = (  -0.1111111  -0.4490502   0.0713052), wk =   0.0329218
        k(   83) = (  -0.1111111  -0.4490502   0.1069578), wk =   0.0329218
        k(   84) = (  -0.1111111  -0.4490502   0.1426104), wk =   0.0329218
        k(   85) = (  -0.2222222  -0.5132002   0.0356526), wk =   0.0329218
        k(   86) = (  -0.2222222  -0.5132002   0.0713052), wk =   0.0329218
        k(   87) = (  -0.2222222  -0.5132002   0.1069578), wk =   0.0329218
        k(   88) = (  -0.2222222  -0.5132002   0.1426104), wk =   0.0329218

     Dense  grid:    65193 G-vectors     FFT dimensions: (  36,  36, 120)

     Smooth grid:    23071 G-vectors     FFT dimensions: (  25,  25,  80)

     Estimated max dynamical RAM per process >     258.65 MB

     Initial potential from superposition of free atoms

     starting charge    7.99888, renormalised to    8.00000

     negative rho (up, down):  2.447E-06 0.000E+00
     Starting wfcs are    8 randomized atomic wfcs

     total cpu time spent up to now is        2.5 secs

     Self-consistent Calculation

     iteration #  1     ecut=    30.00 Ry     beta= 0.70
     Davidson diagonalization with overlap
     ethr =  1.00E-02,  avg # of iterations =  4.3

     Threshold (ethr) on eigenvalues was too large:
     Diagonalizing with lowered threshold

     Davidson diagonalization with overlap
     ethr =  7.69E-04,  avg # of iterations =  2.1

     negative rho (up, down):  3.787E-07 0.000E+00

     total cpu time spent up to now is       11.3 secs

     total energy              =     -22.73792044 Ry
     estimated scf accuracy    <       0.06740533 Ry

     iteration #  2     ecut=    30.00 Ry     beta= 0.70
     Davidson diagonalization with overlap
     ethr =  8.43E-04,  avg # of iterations =  2.4

     negative rho (up, down):  5.666E-07 0.000E+00

     total cpu time spent up to now is       15.3 secs

     total energy              =     -22.74508177 Ry
     estimated scf accuracy    <       0.00188321 Ry

     iteration #  3     ecut=    30.00 Ry     beta= 0.70
     Davidson diagonalization with overlap
     c_bands:  1 eigenvalues not converged
     ethr =  2.35E-05,  avg # of iterations =  8.1

     negative rho (up, down):  6.028E-07 0.000E+00

     total cpu time spent up to now is       21.1 secs

     total energy              =     -22.74527954 Ry
     estimated scf accuracy    <       0.00011789 Ry

     iteration #  4     ecut=    30.00 Ry     beta= 0.70
     Davidson diagonalization with overlap
     c_bands:  1 eigenvalues not converged
     ethr =  1.47E-06,  avg # of iterations =  5.3

     negative rho (up, down):  5.575E-07 0.000E+00

     total cpu time spent up to now is       25.9 secs

     total energy              =     -22.74529248 Ry
     estimated scf accuracy    <       0.00000232 Ry

     iteration #  5     ecut=    30.00 Ry     beta= 0.70
     Davidson diagonalization with overlap
     ethr =  2.90E-08,  avg # of iterations =  2.5

     negative rho (up, down):  5.353E-07 0.000E+00

     total cpu time spent up to now is       30.2 secs

     total energy              =     -22.74529341 Ry
     estimated scf accuracy    <       0.00000291 Ry

     iteration #  6     ecut=    30.00 Ry     beta= 0.70
     Davidson diagonalization with overlap
     ethr =  2.90E-08,  avg # of iterations =  1.1

     negative rho (up, down):  5.063E-07 0.000E+00

     total cpu time spent up to now is       33.9 secs

     End of self-consistent calculation

          k = 0.0000 0.0000 0.0000 (  2895 PWs)   bands (ev):

   -12.7915  -4.9298  -2.8716  -2.8716   0.3240   0.7356   1.3450   1.3450

          k = 0.0000 0.0000 0.0357 (  2907 PWs)   bands (ev):

   -12.7915  -4.9298  -2.8717  -2.8717   0.3240   0.7403   1.3450   1.3450

          k = 0.0000 0.0000 0.0713 (  2901 PWs)   bands (ev):

   -12.7915  -4.9299  -2.8716  -2.8716   0.3240   0.7524   1.3450   1.3450

          k = 0.0000 0.0000 0.1070 (  2884 PWs)   bands (ev):

   -12.7915  -4.9299  -2.8716  -2.8716   0.3240   0.7669   1.3451   1.3451

          k = 0.0000 0.0000 0.1426 (  2866 PWs)   bands (ev):

   -12.7915  -4.9299  -2.8716  -2.8716   0.3241   0.7766   1.3451   1.3451

          k = 0.0000 0.1283 0.0000 (  2909 PWs)   bands (ev):

   -12.6464  -4.8447  -3.8299  -3.1190   0.7084   0.8362   1.7131   1.8694

          k = 0.0000 0.1283 0.0357 (  2896 PWs)   bands (ev):

   -12.6464  -4.8447  -3.8299  -3.1190   0.7085   0.8402   1.7133   1.8694

          k = 0.0000 0.1283 0.0713 (  2897 PWs)   bands (ev):

   -12.6464  -4.8447  -3.8299  -3.1190   0.7087   0.8505   1.7136   1.8694

          k = 0.0000 0.1283 0.1070 (  2889 PWs)   bands (ev):

   -12.6464  -4.8447  -3.8299  -3.1190   0.7091   0.8625   1.7140   1.8694

          k = 0.0000 0.1283 0.1426 (  2889 PWs)   bands (ev):

   -12.6464  -4.8448  -3.8299  -3.1190   0.7093   0.8706   1.7143   1.8695

          k = 0.0000 0.2566 0.0000 (  2895 PWs)   bands (ev):

   -12.2169  -5.7184  -4.2575  -3.6032   0.1858   0.9382   2.7052   3.1560

          k = 0.0000 0.2566 0.0357 (  2892 PWs)   bands (ev):

   -12.2169  -5.7184  -4.2576  -3.6032   0.1858   0.9397   2.7274   3.1560

          k = 0.0000 0.2566 0.0713 (  2889 PWs)   bands (ev):

   -12.2169  -5.7184  -4.2576  -3.6032   0.1858   0.9439   2.7671   3.1560

          k = 0.0000 0.2566 0.1070 (  2893 PWs)   bands (ev):

   -12.2169  -5.7184  -4.2576  -3.6032   0.1858   0.9490   2.8205   3.1560

          k = 0.0000 0.2566 0.1426 (  2890 PWs)   bands (ev):

   -12.2169  -5.7184  -4.2576  -3.6032   0.1858   0.9526   2.8546   3.1560

          k = 0.0000 0.3849 0.0000 (  2887 PWs)   bands (ev):

   -11.5310  -7.3293  -4.0204  -3.6471  -0.3645   0.2897   2.7538   4.5878

          k = 0.0000 0.3849 0.0357 (  2898 PWs)   bands (ev):

   -11.5310  -7.3293  -4.0204  -3.6471  -0.3645   0.2897   2.7676   4.5878

          k = 0.0000 0.3849 0.0713 (  2891 PWs)   bands (ev):

   -11.5310  -7.3293  -4.0204  -3.6471  -0.3645   0.2898   2.7935   4.5880

          k = 0.0000 0.3849 0.1070 (  2888 PWs)   bands (ev):

   -11.5310  -7.3293  -4.0204  -3.6471  -0.3645   0.2900   2.8209   3.9201

          k = 0.0000 0.3849 0.1426 (  2886 PWs)   bands (ev):

   -11.5310  -7.3293  -4.0204  -3.6471  -0.3645   0.2902   2.8359   4.5877

          k = 0.0000 0.5132 0.0000 (  2903 PWs)   bands (ev):

   -10.7335  -8.6219  -4.2481  -2.9227  -0.9294  -0.4582   3.5229   4.8946

          k = 0.0000 0.5132 0.0357 (  2895 PWs)   bands (ev):

   -10.7335  -8.6219  -4.2481  -2.9227  -0.9294  -0.4581   3.5318   4.8945

          k = 0.0000 0.5132 0.0713 (  2883 PWs)   bands (ev):

   -10.7335  -8.6219  -4.2481  -2.9227  -0.9294  -0.4581   3.5463   4.8945

          k = 0.0000 0.5132 0.1070 (  2885 PWs)   bands (ev):

   -10.7335  -8.6219  -4.2481  -2.9228  -0.9295  -0.4581   3.5600   4.8945

          k = 0.0000 0.5132 0.1426 (  2885 PWs)   bands (ev):

   -10.7335  -8.6219  -4.2481  -2.9228  -0.9295  -0.4581   3.5660   4.8944

          k = 0.1111 0.1925 0.0000 (  2907 PWs)   bands (ev):

   -12.3588  -5.2356  -4.3281  -3.6608   0.9012   1.3390   1.3519   2.9574

          k = 0.1111 0.1925 0.0357 (  2898 PWs)   bands (ev):

   -12.3588  -5.2356  -4.3281  -3.6608   0.9032   1.3398   1.3519   2.9510

          k = 0.1111 0.1925 0.0713 (  2901 PWs)   bands (ev):

   -12.3588  -5.2356  -4.3281  -3.6608   0.9085   1.3419   1.3519   2.9328

          k = 0.1111 0.1925 0.1070 (  2897 PWs)   bands (ev):

   -12.3588  -5.2356  -4.3281  -3.6608   0.9145   1.3444   1.3519   2.9070

          k = 0.1111 0.1925 0.1426 (  2895 PWs)   bands (ev):

   -12.3588  -5.2356  -4.3281  -3.6608   0.9185   1.3461   1.3519   2.8872

          k = 0.1111 0.3208 0.0000 (  2885 PWs)   bands (ev):

   -11.7972  -6.6447  -4.3295  -3.8734   0.4762   0.9467   2.6325   2.9459

          k = 0.1111 0.3208 0.0357 (  2885 PWs)   bands (ev):

   -11.7972  -6.6447  -4.3295  -3.8734   0.4762   0.9469   2.6434   2.9505

          k = 0.1111 0.3208 0.0713 (  2889 PWs)   bands (ev):

   -11.7972  -6.6447  -4.3295  -3.8735   0.4765   0.9475   2.6670   2.9587

          k = 0.1111 0.3208 0.1070 (  2894 PWs)   bands (ev):

   -11.7972  -6.6447  -4.3295  -3.8735   0.4769   0.9481   2.6940   2.9690

          k = 0.1111 0.3208 0.1426 (  2897 PWs)   bands (ev):

   -11.7972  -6.6447  -4.3295  -3.8735   0.4772   0.9485   2.7111   2.9745

          k = 0.1111 0.4491 0.0000 (  2877 PWs)   bands (ev):

   -11.0171  -8.0669  -4.7572  -3.1498  -0.4559   0.5165   3.1866   3.8643

          k = 0.1111 0.4491 0.0357 (  2878 PWs)   bands (ev):

   -11.0171  -8.0669  -4.7572  -3.1498  -0.4559   0.5165   3.1978   3.8533

          k = 0.1111 0.4491 0.0713 (  2880 PWs)   bands (ev):

   -11.0171  -8.0669  -4.7572  -3.1498  -0.4560   0.5165   3.2156   3.8493

          k = 0.1111 0.4491 0.1070 (  2888 PWs)   bands (ev):

   -11.0171  -8.0669  -4.7572  -3.1498  -0.4560   0.5165   3.2317   3.8559

          k = 0.1111 0.4491 0.1426 (  2889 PWs)   bands (ev):

   -11.0171  -8.0669  -4.7572  -3.1498  -0.4559   0.5166   3.2378   3.8719

          k = 0.1111 0.5774 0.0000 (  2892 PWs)   bands (ev):

   -10.4265  -8.8856  -4.9018  -2.6110  -1.1262   0.3631   3.4457   4.3851

          k = 0.1111 0.5774 0.0357 (  2882 PWs)   bands (ev):

   -10.4265  -8.8856  -4.9018  -2.6110  -1.1262   0.3631   3.4460   4.3893

          k = 0.1111 0.5774 0.0713 (  2876 PWs)   bands (ev):

   -10.4265  -8.8856  -4.9018  -2.6110  -1.1263   0.3631   3.4465   4.4002

          k = 0.1111 0.5774 0.1070 (  2864 PWs)   bands (ev):

   -10.4265  -8.8856  -4.9018  -2.6110  -1.1263   0.3631   3.4472   4.4137

          k = 0.1111 0.5774 0.1426 (  2869 PWs)   bands (ev):

   -10.4265  -8.8856  -4.9018  -2.6110  -1.1263   0.3631   3.4476   4.4224

          k = 0.2222 0.3849 0.0000 (  2874 PWs)   bands (ev):

   -11.1240  -7.7044  -5.2443  -3.2403  -0.1650   2.3297   2.6201   3.3433

          k = 0.2222 0.3849 0.0357 (  2875 PWs)   bands (ev):

   -11.1240  -7.7044  -5.2443  -3.2403  -0.1650   2.3299   2.6201   3.3415

          k = 0.2222 0.3849 0.0713 (  2876 PWs)   bands (ev):

   -11.1240  -7.7044  -5.2443  -3.2403  -0.1650   2.3302   2.6200   3.3387

          k = 0.2222 0.3849 0.1070 (  2884 PWs)   bands (ev):

   -11.1240  -7.7044  -5.2443  -3.2403  -0.1649   2.3307   2.6199   3.3349

          k = 0.2222 0.3849 0.1426 (  2893 PWs)   bands (ev):

   -11.1240  -7.7044  -5.2443  -3.2404  -0.1649   2.3310   2.6198   3.3320

          k = 0.2222 0.5132 0.0000 (  2873 PWs)   bands (ev):

   -10.3059  -8.7591  -5.7394  -2.4731  -1.0460   2.2589   2.6777   4.1482

          k = 0.2222 0.5132 0.0357 (  2873 PWs)   bands (ev):

   -10.3059  -8.7591  -5.7394  -2.4731  -1.0460   2.2589   2.6777   4.1544

          k = 0.2222 0.5132 0.0713 (  2871 PWs)   bands (ev):

   -10.3059  -8.7591  -5.7394  -2.4731  -1.0461   2.2589   2.6773   4.1709

          k = 0.2222 0.5132 0.1070 (  2873 PWs)   bands (ev):

   -10.3059  -8.7591  -5.7394  -2.4732  -1.0461   2.2589   2.6769   4.1913

          k = 0.2222 0.5132 0.1426 (  2870 PWs)   bands (ev):

   -10.3059  -8.7591  -5.7394  -2.4732  -1.0461   2.2589   2.6765   4.2050

          k = 0.3333 0.5774 0.0000 (  2850 PWs)   bands (ev):

    -9.5058  -9.5057  -6.1504  -1.7298  -1.7297   2.2583   4.0473   4.5203

          k = 0.3333 0.5774 0.0357 (  2853 PWs)   bands (ev):

    -9.5058  -9.5057  -6.1504  -1.7298  -1.7297   2.2583   4.5200   4.5210

          k = 0.3333 0.5774 0.0713 (  2850 PWs)   bands (ev):

    -9.5058  -9.5057  -6.1504  -1.7298  -1.7297   2.2580   4.5224   4.5225

          k = 0.3333 0.5774 0.1070 (  2838 PWs)   bands (ev):

    -9.5058  -9.5057  -6.1504  -1.7298  -1.7297   2.2578   4.5234   4.5243

          k = 0.3333 0.5774 0.1426 (  2832 PWs)   bands (ev):

    -9.5058  -9.5057  -6.1504  -1.7298  -1.7297   2.2576   4.0485   4.5254

          k = 0.0000-0.1283 0.0357 (  2896 PWs)   bands (ev):

   -12.6464  -4.8447  -3.8299  -3.1190   0.7086   0.8401   1.7132   1.8695

          k = 0.0000-0.1283 0.0713 (  2897 PWs)   bands (ev):

   -12.6464  -4.8447  -3.8299  -3.1190   0.7090   0.8503   1.7135   1.8695

          k = 0.0000-0.1283 0.1070 (  2889 PWs)   bands (ev):

   -12.6464  -4.8447  -3.8299  -3.1190   0.7093   0.8624   1.7139   1.8695

          k = 0.0000-0.1283 0.1426 (  2889 PWs)   bands (ev):

   -12.6464  -4.8448  -3.8299  -3.1190   0.7094   0.8706   1.7142   1.8694

          k = 0.0000-0.2566 0.0357 (  2892 PWs)   bands (ev):

   -12.2169  -5.7184  -4.2576  -3.6032   0.1858   0.9402   2.7018   3.1560

          k = 0.0000-0.2566 0.0713 (  2889 PWs)   bands (ev):

   -12.2169  -5.7184  -4.2576  -3.6032   0.1858   0.9447   2.7185   3.1560

          k = 0.0000-0.2566 0.1070 (  2893 PWs)   bands (ev):

   -12.2169  -5.7184  -4.2576  -3.6032   0.1858   0.9498   2.7572   3.1560

          k = 0.0000-0.2566 0.1426 (  2890 PWs)   bands (ev):

   -12.2169  -5.7184  -4.2576  -3.6032   0.1858   0.9529   2.8148   3.1560

          k = 0.0000-0.3849 0.0357 (  2898 PWs)   bands (ev):

   -11.5310  -7.3293  -4.0204  -3.6471  -0.3645   0.2898   2.7568   4.5881

          k = 0.0000-0.3849 0.0713 (  2891 PWs)   bands (ev):

   -11.5310  -7.3293  -4.0204  -3.6471  -0.3645   0.2900   2.7754   4.5879

          k = 0.0000-0.3849 0.1070 (  2888 PWs)   bands (ev):

   -11.5310  -7.3293  -4.0204  -3.6471  -0.3645   0.2902   2.8034   4.5881

          k = 0.0000-0.3849 0.1426 (  2886 PWs)   bands (ev):

   -11.5310  -7.3293  -4.0204  -3.6471  -0.3645   0.2903   2.8282   4.5877

          k = 0.0000-0.5132 0.0357 (  2895 PWs)   bands (ev):

   -10.7335  -8.6219  -4.2481  -2.9227  -0.9294  -0.4582   3.5233   4.8945

          k = 0.0000-0.5132 0.0713 (  2883 PWs)   bands (ev):

   -10.7335  -8.6219  -4.2481  -2.9227  -0.9294  -0.4581   3.5329   4.8945

          k = 0.0000-0.5132 0.1070 (  2885 PWs)   bands (ev):

   -10.7335  -8.6219  -4.2481  -2.9228  -0.9294  -0.4581   3.5476   4.8946

          k = 0.0000-0.5132 0.1426 (  2885 PWs)   bands (ev):

   -10.7335  -8.6219  -4.2481  -2.9228  -0.9295  -0.4581   3.5609   4.8945

          k =-0.1111-0.3208 0.0357 (  2885 PWs)   bands (ev):

   -11.7972  -6.6447  -4.3295  -3.8734   0.4764   0.9469   2.6379   2.9448

          k =-0.1111-0.3208 0.0713 (  2889 PWs)   bands (ev):

   -11.7972  -6.6447  -4.3295  -3.8735   0.4768   0.9475   2.6582   2.9478

          k =-0.1111-0.3208 0.1070 (  2894 PWs)   bands (ev):

   -11.7972  -6.6447  -4.3295  -3.8735   0.4772   0.9481   2.6860   2.9559

          k =-0.1111-0.3208 0.1426 (  2897 PWs)   bands (ev):

   -11.7972  -6.6447  -4.3295  -3.8735   0.4773   0.9485   2.7078   2.9678

          k =-0.1111-0.4491 0.0357 (  2878 PWs)   bands (ev):

   -11.0171  -8.0669  -4.7572  -3.1498  -0.4559   0.5165   3.1863   3.8779

          k =-0.1111-0.4491 0.0713 (  2880 PWs)   bands (ev):

   -11.0171  -8.0669  -4.7572  -3.1498  -0.4559   0.5165   3.1968   3.8902

          k =-0.1111-0.4491 0.1070 (  2888 PWs)   bands (ev):

   -11.0171  -8.0669  -4.7572  -3.1498  -0.4559   0.5165   3.2140   3.8954

          k =-0.1111-0.4491 0.1426 (  2889 PWs)   bands (ev):

   -11.0171  -8.0669  -4.7572  -3.1498  -0.4559   0.5165   3.2304   3.8886

          k =-0.2222-0.5132 0.0357 (  2873 PWs)   bands (ev):

   -10.3059  -8.7591  -5.7395  -2.4731  -1.0460   2.2588   2.6774   4.1554

          k =-0.2222-0.5132 0.0713 (  2871 PWs)   bands (ev):

   -10.3059  -8.7591  -5.7394  -2.4731  -1.0460   2.2588   2.6770   4.1718

          k =-0.2222-0.5132 0.1070 (  2873 PWs)   bands (ev):

   -10.3059  -8.7591  -5.7395  -2.4732  -1.0461   2.2589   2.6765   4.1922

          k =-0.2222-0.5132 0.1426 (  2870 PWs)   bands (ev):

   -10.3059  -8.7591  -5.7394  -2.4732  -1.0461   2.2589   2.6763   4.2055

     the Fermi energy is    -1.7297 ev

!    total energy              =     -22.74529387 Ry
     estimated scf accuracy    <       0.00000006 Ry
     smearing contrib. (-TS)   =      -0.00013931 Ry
     internal energy E=F+TS    =     -22.74515456 Ry

     The total energy is F=E-TS. E is the sum of the following terms:
     one-electron contribution =     -38.14530887 Ry
     hartree contribution      =      20.36417934 Ry
     xc contribution           =     -12.14772224 Ry
     ewald contribution        =       7.18369722 Ry

     convergence has been achieved in   6 iterations

     Writing output data file /home/jesus/Documentos/Nanociencia_DFT/test.save/
 
     init_run     :      1.71s CPU      1.87s WALL (       1 calls)
     electrons    :     30.14s CPU     31.34s WALL (       1 calls)

     Called by init_run:
     wfcinit      :      1.07s CPU      1.09s WALL (       1 calls)
     potinit      :      0.13s CPU      0.14s WALL (       1 calls)
     hinit0       :      0.30s CPU      0.32s WALL (       1 calls)

     Called by electrons:
     c_bands      :     24.13s CPU     24.26s WALL (       7 calls)
     sum_band     :      4.74s CPU      5.28s WALL (       7 calls)
     v_of_rho     :      0.48s CPU      0.51s WALL (       7 calls)
     newd         :      0.97s CPU      1.56s WALL (       7 calls)
     mix_rho      :      0.04s CPU      0.04s WALL (       7 calls)

     Called by c_bands:
     init_us_2    :      1.08s CPU      1.09s WALL (    1320 calls)
     cegterg      :     18.86s CPU     18.98s WALL (     616 calls)

     Called by *egterg:
     cdiaghg      :      0.33s CPU      0.33s WALL (    2800 calls)
     h_psi        :     16.94s CPU     17.05s WALL (    2976 calls)
     s_psi        :      0.66s CPU      0.67s WALL (    2976 calls)
     g_psi        :      0.09s CPU      0.09s WALL (    2272 calls)

     Called by h_psi:
     h_psi:calbec :      0.85s CPU      0.85s WALL (    2976 calls)
     vloc_psi     :     15.23s CPU     15.33s WALL (    2976 calls)
     add_vuspsi   :      0.75s CPU      0.76s WALL (    2976 calls)

     General routines
     calbec       :      1.07s CPU      1.08s WALL (    3592 calls)
     fft          :      0.18s CPU      0.20s WALL (      90 calls)
     ffts         :      0.01s CPU      0.01s WALL (      14 calls)
     fftw         :     15.78s CPU     15.87s WALL (   33710 calls)
     interpolate  :      0.02s CPU      0.02s WALL (       7 calls)
 
     Parallel routines
 
     PWSCF        :     32.50s CPU     33.95s WALL

 
   This run was terminated on:   9:47:23  17Mar2021            

=------------------------------------------------------------------------------=
   JOB DONE.
=------------------------------------------------------------------------------=
