
     Program PWSCF v.6.6 starts on 17Mar2021 at  9:49: 6 

     This program is part of the open-source Quantum ESPRESSO suite
     for quantum simulation of materials; please cite
         "P. Giannozzi et al., J. Phys.:Condens. Matter 21 395502 (2009);
         "P. Giannozzi et al., J. Phys.:Condens. Matter 29 465901 (2017);
          URL http://www.quantum-espresso.org", 
     in publications or presentations arising from this work. More details at
     http://www.quantum-espresso.org/quote

     Parallel version (MPI), running on     1 processors

     MPI processes distributed on     1 nodes
     Fft bands division:     nmany     =       1
     Waiting for input...
     Reading input from standard input
Warning: card &CELL ignored
Warning: card   CELL_DYNAMICS='BFGS', ignored
Warning: card   CELL_DOFREE='ALL', ignored
Warning: card / ignored

     Current dimensions of program PWSCF are:
     Max number of different atomic species (ntypx) = 10
     Max number of k-points (npk) =  40000
     Max angular momentum in pseudopotentials (lmaxx) =  3

     Subspace diagonalization in iterative solution of the eigenvalue problem:
     a serial algorithm will be used

 
     G-vector sticks info
     --------------------
     sticks:   dense  smooth     PW     G-vecs:    dense   smooth      PW
     Sum         871     433    139                65193    23071    3853
 


     bravais-lattice index     =            4
     lattice parameter (alat)  =       7.2764  a.u.
     unit-cell volume          =    1039.7733 (a.u.)^3
     number of atoms/cell      =            2
     number of atomic types    =            1
     number of electrons       =         8.00
     number of Kohn-Sham states=            8
     kinetic-energy cutoff     =      30.0000  Ry
     charge density cutoff     =     240.0000  Ry
     convergence threshold     =      1.0E-06
     mixing beta               =       0.7000
     number of iterations used =            8  plain     mixing
     Exchange-correlation= PBE
                           (   1   4   3   4   0   0   0)

     celldm(1)=   7.276356  celldm(2)=   0.000000  celldm(3)=   3.116493
     celldm(4)=   0.000000  celldm(5)=   0.000000  celldm(6)=   0.000000

     crystal axes: (cart. coord. in units of alat)
               a(1) = (   1.000000   0.000000   0.000000 )  
               a(2) = (  -0.500000   0.866025   0.000000 )  
               a(3) = (   0.000000   0.000000   3.116493 )  

     reciprocal axes: (cart. coord. in units 2 pi/alat)
               b(1) = (  1.000000  0.577350  0.000000 )  
               b(2) = (  0.000000  1.154701  0.000000 )  
               b(3) = (  0.000000  0.000000  0.320873 )  


     PseudoPot. # 1 for Si read from file:
     /home/jesus/Documentos/Nanociencia_DFT/pseudopotenciales/Si.pbe-n-rrkjus_psl.1.0.0.UPF
     MD5 check sum: fa25574f73a70a4139f2adfbefec430c
     Pseudo is Ultrasoft + core correction, Zval =  4.0
     Generated using "atomic" code by A. Dal Corso v.6.3
     Using radial grid of 1141 points,  6 beta functions with: 
                l(1) =   0
                l(2) =   0
                l(3) =   1
                l(4) =   1
                l(5) =   2
                l(6) =   2
     Q(r) pseudized with 0 coefficients 


     atomic species   valence    mass     pseudopotential
        Si             4.00    28.08550     Si( 1.00)

      6 Sym. Ops. (no inversion) found



   Cartesian axes

     site n.     atom                  positions (alat units)
         1           Si  tau(   1) = (  -0.0000000   0.5773503   1.5329382  )
         2           Si  tau(   2) = (   0.5000000   0.2886751   1.6614235  )

     number of k points=   193  Methfessel-Paxton smearing, width (Ry)=  0.0100

     Number of k-points >= 100: set verbosity='high' to print them.

     Dense  grid:    65193 G-vectors     FFT dimensions: (  36,  36, 120)

     Smooth grid:    23071 G-vectors     FFT dimensions: (  25,  25,  80)

     Estimated max dynamical RAM per process >     295.63 MB

     Initial potential from superposition of free atoms

     starting charge    7.99888, renormalised to    8.00000

     negative rho (up, down):  2.447E-06 0.000E+00
     Starting wfcs are    8 randomized atomic wfcs

     total cpu time spent up to now is        4.1 secs

     Self-consistent Calculation

     iteration #  1     ecut=    30.00 Ry     beta= 0.70
     Davidson diagonalization with overlap
     ethr =  1.00E-02,  avg # of iterations =  4.3

     Threshold (ethr) on eigenvalues was too large:
     Diagonalizing with lowered threshold

     Davidson diagonalization with overlap
     ethr =  7.69E-04,  avg # of iterations =  1.6

     negative rho (up, down):  3.901E-07 0.000E+00

     total cpu time spent up to now is       24.7 secs

     total energy              =     -22.73820049 Ry
     estimated scf accuracy    <       0.06734854 Ry

     iteration #  2     ecut=    30.00 Ry     beta= 0.70
     Davidson diagonalization with overlap
     ethr =  8.42E-04,  avg # of iterations =  2.9

     negative rho (up, down):  5.635E-07 0.000E+00

     total cpu time spent up to now is       34.3 secs

     total energy              =     -22.74537026 Ry
     estimated scf accuracy    <       0.00188338 Ry

     iteration #  3     ecut=    30.00 Ry     beta= 0.70
     Davidson diagonalization with overlap
     c_bands:  1 eigenvalues not converged
     ethr =  2.35E-05,  avg # of iterations =  7.6

     negative rho (up, down):  6.227E-07 0.000E+00

     total cpu time spent up to now is       46.9 secs

     total energy              =     -22.74556200 Ry
     estimated scf accuracy    <       0.00011740 Ry

     iteration #  4     ecut=    30.00 Ry     beta= 0.70
     Davidson diagonalization with overlap
     c_bands:  1 eigenvalues not converged
     c_bands:  1 eigenvalues not converged
     c_bands:  1 eigenvalues not converged
     c_bands:  1 eigenvalues not converged
     c_bands:  1 eigenvalues not converged
     ethr =  1.47E-06,  avg # of iterations =  5.7

     negative rho (up, down):  5.526E-07 0.000E+00

     total cpu time spent up to now is       59.2 secs

     total energy              =     -22.74557419 Ry
     estimated scf accuracy    <       0.00000129 Ry

     iteration #  5     ecut=    30.00 Ry     beta= 0.70
     Davidson diagonalization with overlap
     c_bands:  1 eigenvalues not converged
     ethr =  1.61E-08,  avg # of iterations =  3.2

     negative rho (up, down):  5.088E-07 0.000E+00

     total cpu time spent up to now is       71.2 secs

     End of self-consistent calculation

     Number of k-points >= 100: set verbosity='high' to print the bands.

     the Fermi energy is    -1.7301 ev

!    total energy              =     -22.74557496 Ry
     estimated scf accuracy    <       0.00000021 Ry
     smearing contrib. (-TS)   =      -0.00007836 Ry
     internal energy E=F+TS    =     -22.74549660 Ry

     The total energy is F=E-TS. E is the sum of the following terms:
     one-electron contribution =     -38.14550114 Ry
     hartree contribution      =      20.36392538 Ry
     xc contribution           =     -12.14761805 Ry
     ewald contribution        =       7.18369722 Ry

     convergence has been achieved in   5 iterations

     Writing output data file /home/jesus/Documentos/Nanociencia_DFT/test.save/
 
     init_run     :      3.16s CPU      3.35s WALL (       1 calls)
     electrons    :     65.71s CPU     67.16s WALL (       1 calls)

     Called by init_run:
     wfcinit      :      2.51s CPU      2.54s WALL (       1 calls)
     potinit      :      0.10s CPU      0.12s WALL (       1 calls)
     hinit0       :      0.31s CPU      0.34s WALL (       1 calls)

     Called by electrons:
     c_bands      :     55.73s CPU     56.19s WALL (       6 calls)
     sum_band     :      8.81s CPU      9.33s WALL (       6 calls)
     v_of_rho     :      0.42s CPU      0.43s WALL (       6 calls)
     newd         :      0.89s CPU      1.45s WALL (       6 calls)
     mix_rho      :      0.03s CPU      0.03s WALL (       6 calls)

     Called by c_bands:
     init_us_2    :      2.29s CPU      2.32s WALL (    2509 calls)
     cegterg      :     44.89s CPU     45.28s WALL (    1158 calls)

     Called by *egterg:
     cdiaghg      :      0.77s CPU      0.78s WALL (    5872 calls)
     h_psi        :     40.07s CPU     40.42s WALL (    6258 calls)
     s_psi        :      1.64s CPU      1.66s WALL (    6258 calls)
     g_psi        :      0.20s CPU      0.20s WALL (    4907 calls)

     Called by h_psi:
     h_psi:calbec :      2.04s CPU      2.06s WALL (    6258 calls)
     vloc_psi     :     35.96s CPU     36.28s WALL (    6258 calls)
     add_vuspsi   :      1.81s CPU      1.82s WALL (    6258 calls)

     General routines
     calbec       :      2.52s CPU      2.54s WALL (    7416 calls)
     fft          :      0.15s CPU      0.18s WALL (      77 calls)
     ffts         :      0.01s CPU      0.01s WALL (      12 calls)
     fftw         :     35.95s CPU     36.26s WALL (   66662 calls)
     interpolate  :      0.02s CPU      0.02s WALL (       6 calls)
 
     Parallel routines
 
     PWSCF        :   1m 9.60s CPU   1m11.35s WALL

 
   This run was terminated on:   9:50:18  17Mar2021            

=------------------------------------------------------------------------------=
   JOB DONE.
=------------------------------------------------------------------------------=
