
     Program PWSCF v.6.6 starts on 17Mar2021 at  9:47:23 

     This program is part of the open-source Quantum ESPRESSO suite
     for quantum simulation of materials; please cite
         "P. Giannozzi et al., J. Phys.:Condens. Matter 21 395502 (2009);
         "P. Giannozzi et al., J. Phys.:Condens. Matter 29 465901 (2017);
          URL http://www.quantum-espresso.org", 
     in publications or presentations arising from this work. More details at
     http://www.quantum-espresso.org/quote

     Parallel version (MPI), running on     1 processors

     MPI processes distributed on     1 nodes
     Fft bands division:     nmany     =       1
     Waiting for input...
     Reading input from standard input
Warning: card &CELL ignored
Warning: card   CELL_DYNAMICS='BFGS', ignored
Warning: card   CELL_DOFREE='ALL', ignored
Warning: card / ignored

     Current dimensions of program PWSCF are:
     Max number of different atomic species (ntypx) = 10
     Max number of k-points (npk) =  40000
     Max angular momentum in pseudopotentials (lmaxx) =  3

     Subspace diagonalization in iterative solution of the eigenvalue problem:
     a serial algorithm will be used

 
     G-vector sticks info
     --------------------
     sticks:   dense  smooth     PW     G-vecs:    dense   smooth      PW
     Sum         871     433    127                65193    23071    3805
 


     bravais-lattice index     =            4
     lattice parameter (alat)  =       7.2764  a.u.
     unit-cell volume          =    1039.7733 (a.u.)^3
     number of atoms/cell      =            2
     number of atomic types    =            1
     number of electrons       =         8.00
     number of Kohn-Sham states=            8
     kinetic-energy cutoff     =      30.0000  Ry
     charge density cutoff     =     240.0000  Ry
     convergence threshold     =      1.0E-06
     mixing beta               =       0.7000
     number of iterations used =            8  plain     mixing
     Exchange-correlation= PBE
                           (   1   4   3   4   0   0   0)

     celldm(1)=   7.276356  celldm(2)=   0.000000  celldm(3)=   3.116493
     celldm(4)=   0.000000  celldm(5)=   0.000000  celldm(6)=   0.000000

     crystal axes: (cart. coord. in units of alat)
               a(1) = (   1.000000   0.000000   0.000000 )  
               a(2) = (  -0.500000   0.866025   0.000000 )  
               a(3) = (   0.000000   0.000000   3.116493 )  

     reciprocal axes: (cart. coord. in units 2 pi/alat)
               b(1) = (  1.000000  0.577350  0.000000 )  
               b(2) = (  0.000000  1.154701  0.000000 )  
               b(3) = (  0.000000  0.000000  0.320873 )  


     PseudoPot. # 1 for Si read from file:
     /home/jesus/Documentos/Nanociencia_DFT/pseudopotenciales/Si.pbe-n-rrkjus_psl.1.0.0.UPF
     MD5 check sum: fa25574f73a70a4139f2adfbefec430c
     Pseudo is Ultrasoft + core correction, Zval =  4.0
     Generated using "atomic" code by A. Dal Corso v.6.3
     Using radial grid of 1141 points,  6 beta functions with: 
                l(1) =   0
                l(2) =   0
                l(3) =   1
                l(4) =   1
                l(5) =   2
                l(6) =   2
     Q(r) pseudized with 0 coefficients 


     atomic species   valence    mass     pseudopotential
        Si             4.00    28.08550     Si( 1.00)

      6 Sym. Ops. (no inversion) found



   Cartesian axes

     site n.     atom                  positions (alat units)
         1           Si  tau(   1) = (  -0.0000000   0.5773503   1.5329382  )
         2           Si  tau(   2) = (   0.5000000   0.2886751   1.6614235  )

     number of k points=   116  Methfessel-Paxton smearing, width (Ry)=  0.0100

     Number of k-points >= 100: set verbosity='high' to print them.

     Dense  grid:    65193 G-vectors     FFT dimensions: (  36,  36, 120)

     Smooth grid:    23071 G-vectors     FFT dimensions: (  25,  25,  80)

     Estimated max dynamical RAM per process >     268.51 MB

     Initial potential from superposition of free atoms

     starting charge    7.99888, renormalised to    8.00000

     negative rho (up, down):  2.447E-06 0.000E+00
     Starting wfcs are    8 randomized atomic wfcs

     total cpu time spent up to now is        2.9 secs

     Self-consistent Calculation

     iteration #  1     ecut=    30.00 Ry     beta= 0.70
     Davidson diagonalization with overlap
     ethr =  1.00E-02,  avg # of iterations =  4.4

     Threshold (ethr) on eigenvalues was too large:
     Diagonalizing with lowered threshold

     Davidson diagonalization with overlap
     ethr =  7.68E-04,  avg # of iterations =  1.6

     negative rho (up, down):  3.657E-07 0.000E+00

     total cpu time spent up to now is       15.7 secs

     total energy              =     -22.73843803 Ry
     estimated scf accuracy    <       0.06732317 Ry

     iteration #  2     ecut=    30.00 Ry     beta= 0.70
     Davidson diagonalization with overlap
     ethr =  8.42E-04,  avg # of iterations =  2.8

     negative rho (up, down):  5.511E-07 0.000E+00

     total cpu time spent up to now is       21.0 secs

     total energy              =     -22.74558576 Ry
     estimated scf accuracy    <       0.00188269 Ry

     iteration #  3     ecut=    30.00 Ry     beta= 0.70
     Davidson diagonalization with overlap
     c_bands:  1 eigenvalues not converged
     c_bands:  1 eigenvalues not converged
     ethr =  2.35E-05,  avg # of iterations =  8.6

     negative rho (up, down):  6.067E-07 0.000E+00

     total cpu time spent up to now is       30.0 secs

     total energy              =     -22.74577417 Ry
     estimated scf accuracy    <       0.00011797 Ry

     iteration #  4     ecut=    30.00 Ry     beta= 0.70
     Davidson diagonalization with overlap
     c_bands:  1 eigenvalues not converged
     c_bands:  1 eigenvalues not converged
     c_bands:  1 eigenvalues not converged
     ethr =  1.47E-06,  avg # of iterations =  6.2

     negative rho (up, down):  5.509E-07 0.000E+00

     total cpu time spent up to now is       37.6 secs

     total energy              =     -22.74578596 Ry
     estimated scf accuracy    <       0.00000143 Ry

     iteration #  5     ecut=    30.00 Ry     beta= 0.70
     Davidson diagonalization with overlap
     ethr =  1.79E-08,  avg # of iterations =  2.8

     negative rho (up, down):  5.100E-07 0.000E+00

     total cpu time spent up to now is       44.5 secs

     End of self-consistent calculation

     Number of k-points >= 100: set verbosity='high' to print the bands.

     the Fermi energy is    -1.4172 ev

!    total energy              =     -22.74578670 Ry
     estimated scf accuracy    <       0.00000012 Ry
     smearing contrib. (-TS)   =       0.00007697 Ry
     internal energy E=F+TS    =     -22.74586366 Ry

     The total energy is F=E-TS. E is the sum of the following terms:
     one-electron contribution =     -38.14604796 Ry
     hartree contribution      =      20.36416547 Ry
     xc contribution           =     -12.14767839 Ry
     ewald contribution        =       7.18369722 Ry

     convergence has been achieved in   5 iterations

     Writing output data file /home/jesus/Documentos/Nanociencia_DFT/test.save/
 
     init_run     :      2.13s CPU      2.26s WALL (       1 calls)
     electrons    :     40.38s CPU     41.55s WALL (       1 calls)

     Called by init_run:
     wfcinit      :      1.45s CPU      1.48s WALL (       1 calls)
     potinit      :      0.13s CPU      0.14s WALL (       1 calls)
     hinit0       :      0.30s CPU      0.33s WALL (       1 calls)

     Called by electrons:
     c_bands      :     33.40s CPU     33.63s WALL (       6 calls)
     sum_band     :      5.88s CPU      6.39s WALL (       6 calls)
     v_of_rho     :      0.41s CPU      0.43s WALL (       6 calls)
     newd         :      0.89s CPU      1.37s WALL (       6 calls)
     mix_rho      :      0.03s CPU      0.03s WALL (       6 calls)

     Called by c_bands:
     init_us_2    :      1.37s CPU      1.39s WALL (    1508 calls)
     cegterg      :     26.98s CPU     27.16s WALL (     696 calls)

     Called by *egterg:
     cdiaghg      :      0.47s CPU      0.48s WALL (    3647 calls)
     h_psi        :     24.13s CPU     24.30s WALL (    3879 calls)
     s_psi        :      0.96s CPU      0.97s WALL (    3879 calls)
     g_psi        :      0.12s CPU      0.12s WALL (    3067 calls)

     Called by h_psi:
     h_psi:calbec :      1.22s CPU      1.23s WALL (    3879 calls)
     vloc_psi     :     21.67s CPU     21.82s WALL (    3879 calls)
     add_vuspsi   :      1.08s CPU      1.09s WALL (    3879 calls)

     General routines
     calbec       :      1.51s CPU      1.52s WALL (    4575 calls)
     fft          :      0.15s CPU      0.17s WALL (      77 calls)
     ffts         :      0.01s CPU      0.01s WALL (      12 calls)
     fftw         :     21.72s CPU     21.88s WALL (   40108 calls)
     interpolate  :      0.02s CPU      0.02s WALL (       6 calls)
 
     Parallel routines
 
     PWSCF        :     43.21s CPU     44.56s WALL

 
   This run was terminated on:   9:48: 8  17Mar2021            

=------------------------------------------------------------------------------=
   JOB DONE.
=------------------------------------------------------------------------------=
