
     Program PWSCF v.6.6 starts on 17Mar2021 at  9:46:22 

     This program is part of the open-source Quantum ESPRESSO suite
     for quantum simulation of materials; please cite
         "P. Giannozzi et al., J. Phys.:Condens. Matter 21 395502 (2009);
         "P. Giannozzi et al., J. Phys.:Condens. Matter 29 465901 (2017);
          URL http://www.quantum-espresso.org", 
     in publications or presentations arising from this work. More details at
     http://www.quantum-espresso.org/quote

     Parallel version (MPI), running on     1 processors

     MPI processes distributed on     1 nodes
     Fft bands division:     nmany     =       1
     Waiting for input...
     Reading input from standard input
Warning: card &CELL ignored
Warning: card   CELL_DYNAMICS='BFGS', ignored
Warning: card   CELL_DOFREE='ALL', ignored
Warning: card / ignored

     Current dimensions of program PWSCF are:
     Max number of different atomic species (ntypx) = 10
     Max number of k-points (npk) =  40000
     Max angular momentum in pseudopotentials (lmaxx) =  3

     Subspace diagonalization in iterative solution of the eigenvalue problem:
     a serial algorithm will be used

 
     G-vector sticks info
     --------------------
     sticks:   dense  smooth     PW     G-vecs:    dense   smooth      PW
     Sum         871     433    127                65193    23071    3805
 


     bravais-lattice index     =            4
     lattice parameter (alat)  =       7.2764  a.u.
     unit-cell volume          =    1039.7733 (a.u.)^3
     number of atoms/cell      =            2
     number of atomic types    =            1
     number of electrons       =         8.00
     number of Kohn-Sham states=            8
     kinetic-energy cutoff     =      30.0000  Ry
     charge density cutoff     =     240.0000  Ry
     convergence threshold     =      1.0E-06
     mixing beta               =       0.7000
     number of iterations used =            8  plain     mixing
     Exchange-correlation= PBE
                           (   1   4   3   4   0   0   0)

     celldm(1)=   7.276356  celldm(2)=   0.000000  celldm(3)=   3.116493
     celldm(4)=   0.000000  celldm(5)=   0.000000  celldm(6)=   0.000000

     crystal axes: (cart. coord. in units of alat)
               a(1) = (   1.000000   0.000000   0.000000 )  
               a(2) = (  -0.500000   0.866025   0.000000 )  
               a(3) = (   0.000000   0.000000   3.116493 )  

     reciprocal axes: (cart. coord. in units 2 pi/alat)
               b(1) = (  1.000000  0.577350  0.000000 )  
               b(2) = (  0.000000  1.154701  0.000000 )  
               b(3) = (  0.000000  0.000000  0.320873 )  


     PseudoPot. # 1 for Si read from file:
     /home/jesus/Documentos/Nanociencia_DFT/pseudopotenciales/Si.pbe-n-rrkjus_psl.1.0.0.UPF
     MD5 check sum: fa25574f73a70a4139f2adfbefec430c
     Pseudo is Ultrasoft + core correction, Zval =  4.0
     Generated using "atomic" code by A. Dal Corso v.6.3
     Using radial grid of 1141 points,  6 beta functions with: 
                l(1) =   0
                l(2) =   0
                l(3) =   1
                l(4) =   1
                l(5) =   2
                l(6) =   2
     Q(r) pseudized with 0 coefficients 


     atomic species   valence    mass     pseudopotential
        Si             4.00    28.08550     Si( 1.00)

      6 Sym. Ops. (no inversion) found



   Cartesian axes

     site n.     atom                  positions (alat units)
         1           Si  tau(   1) = (  -0.0000000   0.5773503   1.5329382  )
         2           Si  tau(   2) = (   0.5000000   0.2886751   1.6614235  )

     number of k points=    65  Methfessel-Paxton smearing, width (Ry)=  0.0100
                       cart. coord. in units 2pi/alat
        k(    1) = (   0.0000000   0.0000000   0.0000000), wk =   0.0039062
        k(    2) = (   0.0000000   0.0000000   0.0401092), wk =   0.0078125
        k(    3) = (   0.0000000   0.0000000   0.0802184), wk =   0.0078125
        k(    4) = (   0.0000000   0.0000000   0.1203276), wk =   0.0078125
        k(    5) = (   0.0000000   0.0000000  -0.1604367), wk =   0.0039062
        k(    6) = (   0.0000000   0.1443376   0.0000000), wk =   0.0234375
        k(    7) = (   0.0000000   0.1443376   0.0401092), wk =   0.0234375
        k(    8) = (   0.0000000   0.1443376   0.0802184), wk =   0.0234375
        k(    9) = (   0.0000000   0.1443376   0.1203276), wk =   0.0234375
        k(   10) = (   0.0000000   0.1443376  -0.1604367), wk =   0.0234375
        k(   11) = (   0.0000000   0.2886751   0.0000000), wk =   0.0234375
        k(   12) = (   0.0000000   0.2886751   0.0401092), wk =   0.0234375
        k(   13) = (   0.0000000   0.2886751   0.0802184), wk =   0.0234375
        k(   14) = (   0.0000000   0.2886751   0.1203276), wk =   0.0234375
        k(   15) = (   0.0000000   0.2886751  -0.1604367), wk =   0.0234375
        k(   16) = (   0.0000000   0.4330127   0.0000000), wk =   0.0234375
        k(   17) = (   0.0000000   0.4330127   0.0401092), wk =   0.0234375
        k(   18) = (   0.0000000   0.4330127   0.0802184), wk =   0.0234375
        k(   19) = (   0.0000000   0.4330127   0.1203276), wk =   0.0234375
        k(   20) = (   0.0000000   0.4330127  -0.1604367), wk =   0.0234375
        k(   21) = (   0.0000000  -0.5773503   0.0000000), wk =   0.0117188
        k(   22) = (   0.0000000  -0.5773503   0.0401092), wk =   0.0234375
        k(   23) = (   0.0000000  -0.5773503   0.0802184), wk =   0.0234375
        k(   24) = (   0.0000000  -0.5773503   0.1203276), wk =   0.0234375
        k(   25) = (   0.0000000  -0.5773503  -0.1604367), wk =   0.0117188
        k(   26) = (   0.1250000   0.2165064   0.0000000), wk =   0.0234375
        k(   27) = (   0.1250000   0.2165064   0.0401092), wk =   0.0468750
        k(   28) = (   0.1250000   0.2165064   0.0802184), wk =   0.0468750
        k(   29) = (   0.1250000   0.2165064   0.1203276), wk =   0.0468750
        k(   30) = (   0.1250000   0.2165064  -0.1604367), wk =   0.0234375
        k(   31) = (   0.1250000   0.3608439   0.0000000), wk =   0.0468750
        k(   32) = (   0.1250000   0.3608439   0.0401092), wk =   0.0468750
        k(   33) = (   0.1250000   0.3608439   0.0802184), wk =   0.0468750
        k(   34) = (   0.1250000   0.3608439   0.1203276), wk =   0.0468750
        k(   35) = (   0.1250000   0.3608439  -0.1604367), wk =   0.0468750
        k(   36) = (   0.1250000   0.5051815   0.0000000), wk =   0.0468750
        k(   37) = (   0.1250000   0.5051815   0.0401092), wk =   0.0468750
        k(   38) = (   0.1250000   0.5051815   0.0802184), wk =   0.0468750
        k(   39) = (   0.1250000   0.5051815   0.1203276), wk =   0.0468750
        k(   40) = (   0.1250000   0.5051815  -0.1604367), wk =   0.0468750
        k(   41) = (   0.2500000   0.4330127   0.0000000), wk =   0.0234375
        k(   42) = (   0.2500000   0.4330127   0.0401092), wk =   0.0468750
        k(   43) = (   0.2500000   0.4330127   0.0802184), wk =   0.0468750
        k(   44) = (   0.2500000   0.4330127   0.1203276), wk =   0.0468750
        k(   45) = (   0.2500000   0.4330127  -0.1604367), wk =   0.0234375
        k(   46) = (   0.2500000   0.5773503   0.0000000), wk =   0.0234375
        k(   47) = (   0.2500000   0.5773503   0.0401092), wk =   0.0468750
        k(   48) = (   0.2500000   0.5773503   0.0802184), wk =   0.0468750
        k(   49) = (   0.2500000   0.5773503   0.1203276), wk =   0.0468750
        k(   50) = (   0.2500000   0.5773503  -0.1604367), wk =   0.0234375
        k(   51) = (   0.0000000  -0.1443376   0.0401092), wk =   0.0234375
        k(   52) = (   0.0000000  -0.1443376   0.0802184), wk =   0.0234375
        k(   53) = (   0.0000000  -0.1443376   0.1203276), wk =   0.0234375
        k(   54) = (   0.0000000  -0.2886751   0.0401092), wk =   0.0234375
        k(   55) = (   0.0000000  -0.2886751   0.0802184), wk =   0.0234375
        k(   56) = (   0.0000000  -0.2886751   0.1203276), wk =   0.0234375
        k(   57) = (   0.0000000  -0.4330127   0.0401092), wk =   0.0234375
        k(   58) = (   0.0000000  -0.4330127   0.0802184), wk =   0.0234375
        k(   59) = (   0.0000000  -0.4330127   0.1203276), wk =   0.0234375
        k(   60) = (  -0.1250000  -0.3608439   0.0401092), wk =   0.0468750
        k(   61) = (  -0.1250000  -0.3608439   0.0802184), wk =   0.0468750
        k(   62) = (  -0.1250000  -0.3608439   0.1203276), wk =   0.0468750
        k(   63) = (  -0.1250000  -0.5051815   0.0401092), wk =   0.0468750
        k(   64) = (  -0.1250000  -0.5051815   0.0802184), wk =   0.0468750
        k(   65) = (  -0.1250000  -0.5051815   0.1203276), wk =   0.0468750

     Dense  grid:    65193 G-vectors     FFT dimensions: (  36,  36, 120)

     Smooth grid:    23071 G-vectors     FFT dimensions: (  25,  25,  80)

     Estimated max dynamical RAM per process >     250.55 MB

     Initial potential from superposition of free atoms

     starting charge    7.99888, renormalised to    8.00000

     negative rho (up, down):  2.447E-06 0.000E+00
     Starting wfcs are    8 randomized atomic wfcs

     total cpu time spent up to now is        2.3 secs

     Self-consistent Calculation

     iteration #  1     ecut=    30.00 Ry     beta= 0.70
     Davidson diagonalization with overlap
     ethr =  1.00E-02,  avg # of iterations =  4.5

     Threshold (ethr) on eigenvalues was too large:
     Diagonalizing with lowered threshold

     Davidson diagonalization with overlap
     ethr =  7.69E-04,  avg # of iterations =  1.2

     negative rho (up, down):  3.847E-07 0.000E+00

     total cpu time spent up to now is        8.8 secs

     total energy              =     -22.73817948 Ry
     estimated scf accuracy    <       0.06739717 Ry

     iteration #  2     ecut=    30.00 Ry     beta= 0.70
     Davidson diagonalization with overlap
     ethr =  8.42E-04,  avg # of iterations =  2.7

     negative rho (up, down):  5.707E-07 0.000E+00

     total cpu time spent up to now is       12.0 secs

     total energy              =     -22.74532822 Ry
     estimated scf accuracy    <       0.00189250 Ry

     iteration #  3     ecut=    30.00 Ry     beta= 0.70
     Davidson diagonalization with overlap
     ethr =  2.37E-05,  avg # of iterations =  7.4

     negative rho (up, down):  6.374E-07 0.000E+00

     total cpu time spent up to now is       16.2 secs

     total energy              =     -22.74551118 Ry
     estimated scf accuracy    <       0.00011792 Ry

     iteration #  4     ecut=    30.00 Ry     beta= 0.70
     Davidson diagonalization with overlap
     c_bands:  1 eigenvalues not converged
     ethr =  1.47E-06,  avg # of iterations =  4.8

     negative rho (up, down):  5.656E-07 0.000E+00

     total cpu time spent up to now is       20.0 secs

     total energy              =     -22.74552328 Ry
     estimated scf accuracy    <       0.00000180 Ry

     iteration #  5     ecut=    30.00 Ry     beta= 0.70
     Davidson diagonalization with overlap
     ethr =  2.25E-08,  avg # of iterations =  2.6

     negative rho (up, down):  5.407E-07 0.000E+00

     total cpu time spent up to now is       23.3 secs

     total energy              =     -22.74552404 Ry
     estimated scf accuracy    <       0.00000191 Ry

     iteration #  6     ecut=    30.00 Ry     beta= 0.70
     Davidson diagonalization with overlap
     ethr =  2.25E-08,  avg # of iterations =  1.1

     negative rho (up, down):  5.077E-07 0.000E+00

     total cpu time spent up to now is       26.1 secs

     End of self-consistent calculation

          k = 0.0000 0.0000 0.0000 (  2895 PWs)   bands (ev):

   -12.7904  -4.9290  -2.8704  -2.8704   0.3251   0.7360   1.3459   1.3459

          k = 0.0000 0.0000 0.0401 (  2907 PWs)   bands (ev):

   -12.7904  -4.9290  -2.8704  -2.8704   0.3251   0.7419   1.3459   1.3459

          k = 0.0000 0.0000 0.0802 (  2908 PWs)   bands (ev):

   -12.7904  -4.9290  -2.8704  -2.8704   0.3250   0.7565   1.3459   1.3459

          k = 0.0000 0.0000 0.1203 (  2878 PWs)   bands (ev):

   -12.7904  -4.9290  -2.8704  -2.8704   0.3251   0.7719   1.3460   1.3460

          k = 0.0000 0.0000-0.1604 (  2872 PWs)   bands (ev):

   -12.7904  -4.9290  -2.8704  -2.8704   0.3251   0.7784   1.3460   1.3460

          k = 0.0000 0.1443 0.0000 (  2905 PWs)   bands (ev):

   -12.6069  -4.8378  -4.0018  -3.1737   0.6714   0.8590   1.8992   1.9992

          k = 0.0000 0.1443 0.0401 (  2899 PWs)   bands (ev):

   -12.6069  -4.8378  -4.0018  -3.1737   0.6714   0.8638   1.8995   1.9992

          k = 0.0000 0.1443 0.0802 (  2898 PWs)   bands (ev):

   -12.6069  -4.8378  -4.0018  -3.1737   0.6716   0.8757   1.9002   1.9992

          k = 0.0000 0.1443 0.1203 (  2900 PWs)   bands (ev):

   -12.6069  -4.8379  -4.0018  -3.1737   0.6719   0.8880   1.9007   1.9992

          k = 0.0000 0.1443-0.1604 (  2896 PWs)   bands (ev):

   -12.6069  -4.8379  -4.0018  -3.1737   0.6720   0.8933   1.9009   1.9992

          k = 0.0000 0.2887 0.0000 (  2895 PWs)   bands (ev):

   -12.0664  -6.1278  -4.1330  -3.7197   0.0379   0.8718   2.6189   3.5408

          k = 0.0000 0.2887 0.0401 (  2895 PWs)   bands (ev):

   -12.0664  -6.1278  -4.1330  -3.7197   0.0379   0.8727   2.6425   3.5408

          k = 0.0000 0.2887 0.0802 (  2893 PWs)   bands (ev):

   -12.0664  -6.1278  -4.1330  -3.7197   0.0379   0.8756   2.6864   3.5408

          k = 0.0000 0.2887 0.1203 (  2891 PWs)   bands (ev):

   -12.0664  -6.1278  -4.1330  -3.7197   0.0379   0.8787   2.7327   3.5408

          k = 0.0000 0.2887-0.1604 (  2884 PWs)   bands (ev):

   -12.0664  -6.1278  -4.1330  -3.7197   0.0380   0.8803   2.7404   3.5408

          k = 0.0000 0.4330 0.0000 (  2903 PWs)   bands (ev):

   -11.2247  -7.8752  -4.1300  -3.3656  -0.5483  -0.0767   3.0048   4.8307

          k = 0.0000 0.4330 0.0401 (  2890 PWs)   bands (ev):

   -11.2247  -7.8752  -4.1300  -3.3656  -0.5483  -0.0767   3.0190   4.8307

          k = 0.0000 0.4330 0.0802 (  2881 PWs)   bands (ev):

   -11.2247  -7.8752  -4.1300  -3.3656  -0.5483  -0.0767   3.0446   4.3604

          k = 0.0000 0.4330 0.1203 (  2889 PWs)   bands (ev):

   -11.2247  -7.8752  -4.1300  -3.3656  -0.5483  -0.0767   3.0674   4.2577

          k = 0.0000 0.4330-0.1604 (  2886 PWs)   bands (ev):

   -11.2247  -7.8752  -4.1300  -3.3656  -0.5483  -0.0766   3.0718   4.8306

          k = 0.0000-0.5774 0.0000 (  2888 PWs)   bands (ev):

   -10.5413  -8.8748  -4.2761  -2.7570  -1.1071  -0.5262   3.7814   4.8908

          k = 0.0000-0.5774 0.0401 (  2890 PWs)   bands (ev):

   -10.5413  -8.8748  -4.2761  -2.7570  -1.1071  -0.5262   3.7844   4.8909

          k = 0.0000-0.5774 0.0802 (  2882 PWs)   bands (ev):

   -10.5413  -8.8748  -4.2761  -2.7570  -1.1071  -0.5262   3.7921   4.8908

          k = 0.0000-0.5774 0.1203 (  2882 PWs)   bands (ev):

   -10.5413  -8.8748  -4.2761  -2.7570  -1.1071  -0.5262   3.8000   4.8909

          k = 0.0000-0.5774-0.1604 (  2880 PWs)   bands (ev):

   -10.5413  -8.8748  -4.2761  -2.7570  -1.1071  -0.5262   3.8034   4.8910

          k = 0.1250 0.2165 0.0000 (  2895 PWs)   bands (ev):

   -12.2442  -5.5420  -4.2612  -3.8451   0.8850   1.4032   1.4799   2.8654

          k = 0.1250 0.2165 0.0401 (  2893 PWs)   bands (ev):

   -12.2442  -5.5420  -4.2612  -3.8451   0.8868   1.4042   1.4799   2.8739

          k = 0.1250 0.2165 0.0802 (  2888 PWs)   bands (ev):

   -12.2442  -5.5420  -4.2612  -3.8451   0.8912   1.4069   1.4799   2.9009

          k = 0.1250 0.2165 0.1203 (  2897 PWs)   bands (ev):

   -12.2442  -5.5420  -4.2613  -3.8451   0.8956   1.4097   1.4798   2.9507

          k = 0.1250 0.2165-0.1604 (  2902 PWs)   bands (ev):

   -12.2442  -5.5421  -4.2613  -3.8451   0.8975   1.4109   1.4798   3.0111

          k = 0.1250 0.3608 0.0000 (  2886 PWs)   bands (ev):

   -11.5429  -7.1319  -4.5897  -3.6381   0.2294   0.9632   2.7994   3.2692

          k = 0.1250 0.3608 0.0401 (  2890 PWs)   bands (ev):

   -11.5429  -7.1319  -4.5897  -3.6381   0.2294   0.9633   2.8146   3.2702

          k = 0.1250 0.3608 0.0802 (  2896 PWs)   bands (ev):

   -11.5429  -7.1319  -4.5897  -3.6381   0.2295   0.9635   2.8463   3.2710

          k = 0.1250 0.3608 0.1203 (  2887 PWs)   bands (ev):

   -11.5429  -7.1319  -4.5897  -3.6381   0.2297   0.9637   2.8775   3.2697

          k = 0.1250 0.3608-0.1604 (  2886 PWs)   bands (ev):

   -11.5429  -7.1319  -4.5897  -3.6381   0.2299   0.9637   2.8868   3.2673

          k = 0.1250 0.5052 0.0000 (  2877 PWs)   bands (ev):

   -10.6381  -8.5757  -4.9752  -2.7972  -0.8683   0.6115   3.3307   3.9649

          k = 0.1250 0.5052 0.0401 (  2879 PWs)   bands (ev):

   -10.6381  -8.5757  -4.9752  -2.7972  -0.8683   0.6115   3.3351   3.9662

          k = 0.1250 0.5052 0.0802 (  2877 PWs)   bands (ev):

   -10.6381  -8.5757  -4.9752  -2.7972  -0.8684   0.6115   3.3392   3.9826

          k = 0.1250 0.5052 0.1203 (  2878 PWs)   bands (ev):

   -10.6381  -8.5757  -4.9752  -2.7972  -0.8684   0.6115   3.3405   4.0064

          k = 0.1250 0.5052-0.1604 (  2886 PWs)   bands (ev):

   -10.6381  -8.5757  -4.9752  -2.7972  -0.8684   0.6115   3.3382   4.0227

          k = 0.2500 0.4330 0.0000 (  2876 PWs)   bands (ev):

   -10.7186  -8.2315  -5.5910  -2.8578  -0.5968   2.7340   2.7805   3.2314

          k = 0.2500 0.4330 0.0401 (  2869 PWs)   bands (ev):

   -10.7186  -8.2315  -5.5910  -2.8578  -0.5968   2.7342   2.7802   3.2312

          k = 0.2500 0.4330 0.0802 (  2876 PWs)   bands (ev):

   -10.7186  -8.2315  -5.5910  -2.8578  -0.5968   2.7344   2.7795   3.2309

          k = 0.2500 0.4330 0.1203 (  2885 PWs)   bands (ev):

   -10.7186  -8.2315  -5.5910  -2.8578  -0.5968   2.7348   2.7787   3.2305

          k = 0.2500 0.4330-0.1604 (  2882 PWs)   bands (ev):

   -10.7186  -8.2315  -5.5910  -2.8578  -0.5968   2.7348   2.7784   3.2304

          k = 0.2500 0.5774 0.0000 (  2868 PWs)   bands (ev):

    -9.9564  -9.0991  -5.9530  -2.1492  -1.3509   2.4534   2.7638   4.6010

          k = 0.2500 0.5774 0.0401 (  2871 PWs)   bands (ev):

    -9.9564  -9.0991  -5.9530  -2.1492  -1.3510   2.4532   2.7637   4.6061

          k = 0.2500 0.5774 0.0802 (  2864 PWs)   bands (ev):

    -9.9564  -9.0991  -5.9530  -2.1492  -1.3510   2.4529   2.7638   4.6168

          k = 0.2500 0.5774 0.1203 (  2859 PWs)   bands (ev):

    -9.9564  -9.0991  -5.9530  -2.1492  -1.3510   2.4526   2.7638   4.6288

          k = 0.2500 0.5774-0.1604 (  2860 PWs)   bands (ev):

    -9.9564  -9.0991  -5.9530  -2.1492  -1.3510   2.4524   2.7638   4.6336

          k = 0.0000-0.1443 0.0401 (  2899 PWs)   bands (ev):

   -12.6069  -4.8378  -4.0018  -3.1737   0.6716   0.8637   1.8993   1.9992

          k = 0.0000-0.1443 0.0802 (  2898 PWs)   bands (ev):

   -12.6069  -4.8378  -4.0018  -3.1737   0.6718   0.8756   1.8998   1.9992

          k = 0.0000-0.1443 0.1203 (  2900 PWs)   bands (ev):

   -12.6069  -4.8379  -4.0018  -3.1737   0.6720   0.8880   1.9006   1.9992

          k = 0.0000-0.2887 0.0401 (  2895 PWs)   bands (ev):

   -12.0664  -6.1278  -4.1330  -3.7197   0.0379   0.8733   2.6214   3.5408

          k = 0.0000-0.2887 0.0802 (  2893 PWs)   bands (ev):

   -12.0664  -6.1278  -4.1330  -3.7197   0.0380   0.8764   2.6505   3.5408

          k = 0.0000-0.2887 0.1203 (  2891 PWs)   bands (ev):

   -12.0664  -6.1278  -4.1330  -3.7197   0.0380   0.8793   2.6990   3.5408

          k = 0.0000-0.4330 0.0401 (  2890 PWs)   bands (ev):

   -11.2247  -7.8752  -4.1300  -3.3656  -0.5483  -0.0767   3.0083   4.8309

          k = 0.0000-0.4330 0.0802 (  2881 PWs)   bands (ev):

   -11.2247  -7.8752  -4.1300  -3.3656  -0.5483  -0.0766   3.0281   4.8308

          k = 0.0000-0.4330 0.1203 (  2889 PWs)   bands (ev):

   -11.2247  -7.8752  -4.1300  -3.3656  -0.5483  -0.0766   3.0546   4.8308

          k =-0.1250-0.3608 0.0401 (  2890 PWs)   bands (ev):

   -11.5429  -7.1319  -4.5897  -3.6381   0.2295   0.9633   2.8059   3.2676

          k =-0.1250-0.3608 0.0802 (  2896 PWs)   bands (ev):

   -11.5429  -7.1319  -4.5897  -3.6381   0.2297   0.9634   2.8322   3.2664

          k =-0.1250-0.3608 0.1203 (  2887 PWs)   bands (ev):

   -11.5429  -7.1319  -4.5897  -3.6381   0.2299   0.9636   2.8662   3.2660

          k =-0.1250-0.5052 0.0401 (  2879 PWs)   bands (ev):

   -10.6381  -8.5757  -4.9752  -2.7972  -0.8683   0.6115   3.3285   3.9787

          k =-0.1250-0.5052 0.0802 (  2877 PWs)   bands (ev):

   -10.6381  -8.5757  -4.9752  -2.7972  -0.8684   0.6115   3.3298   4.0008

          k =-0.1250-0.5052 0.1203 (  2878 PWs)   bands (ev):

   -10.6381  -8.5757  -4.9752  -2.7972  -0.8684   0.6115   3.3338   4.0197

     the Fermi energy is    -1.4653 ev

!    total energy              =     -22.74552435 Ry
     estimated scf accuracy    <       0.00000006 Ry
     smearing contrib. (-TS)   =       0.00005552 Ry
     internal energy E=F+TS    =     -22.74557988 Ry

     The total energy is F=E-TS. E is the sum of the following terms:
     one-electron contribution =     -38.14613097 Ry
     hartree contribution      =      20.36475974 Ry
     xc contribution           =     -12.14790586 Ry
     ewald contribution        =       7.18369722 Ry

     convergence has been achieved in   6 iterations

     Writing output data file /home/jesus/Documentos/Nanociencia_DFT/test.save/
 
     init_run     :      1.46s CPU      1.59s WALL (       1 calls)
     electrons    :     22.77s CPU     23.86s WALL (       1 calls)

     Called by init_run:
     wfcinit      :      0.79s CPU      0.81s WALL (       1 calls)
     potinit      :      0.12s CPU      0.14s WALL (       1 calls)
     hinit0       :      0.32s CPU      0.34s WALL (       1 calls)

     Called by electrons:
     c_bands      :     17.66s CPU     17.73s WALL (       7 calls)
     sum_band     :      3.81s CPU      4.33s WALL (       7 calls)
     v_of_rho     :      0.49s CPU      0.50s WALL (       7 calls)
     newd         :      0.99s CPU      1.56s WALL (       7 calls)
     mix_rho      :      0.04s CPU      0.04s WALL (       7 calls)

     Called by c_bands:
     init_us_2    :      0.79s CPU      0.80s WALL (     975 calls)
     cegterg      :     13.76s CPU     13.82s WALL (     455 calls)

     Called by *egterg:
     cdiaghg      :      0.23s CPU      0.23s WALL (    1973 calls)
     h_psi        :     12.42s CPU     12.48s WALL (    2103 calls)
     s_psi        :      0.46s CPU      0.47s WALL (    2103 calls)
     g_psi        :      0.06s CPU      0.06s WALL (    1583 calls)

     Called by h_psi:
     h_psi:calbec :      0.62s CPU      0.62s WALL (    2103 calls)
     vloc_psi     :     11.20s CPU     11.25s WALL (    2103 calls)
     add_vuspsi   :      0.53s CPU      0.54s WALL (    2103 calls)

     General routines
     calbec       :      0.78s CPU      0.79s WALL (    2558 calls)
     fft          :      0.17s CPU      0.19s WALL (      90 calls)
     ffts         :      0.01s CPU      0.01s WALL (      14 calls)
     fftw         :     11.61s CPU     11.66s WALL (   24752 calls)
     interpolate  :      0.02s CPU      0.02s WALL (       7 calls)
 
     Parallel routines
 
     PWSCF        :     24.92s CPU     26.23s WALL

 
   This run was terminated on:   9:46:49  17Mar2021            

=------------------------------------------------------------------------------=
   JOB DONE.
=------------------------------------------------------------------------------=
