
     Program PWSCF v.6.6 starts on 17Mar2021 at  9:45:33 

     This program is part of the open-source Quantum ESPRESSO suite
     for quantum simulation of materials; please cite
         "P. Giannozzi et al., J. Phys.:Condens. Matter 21 395502 (2009);
         "P. Giannozzi et al., J. Phys.:Condens. Matter 29 465901 (2017);
          URL http://www.quantum-espresso.org", 
     in publications or presentations arising from this work. More details at
     http://www.quantum-espresso.org/quote

     Parallel version (MPI), running on     1 processors

     MPI processes distributed on     1 nodes
     Fft bands division:     nmany     =       1
     Waiting for input...
     Reading input from standard input
Warning: card &CELL ignored
Warning: card   CELL_DYNAMICS='BFGS', ignored
Warning: card   CELL_DOFREE='ALL', ignored
Warning: card / ignored

     Current dimensions of program PWSCF are:
     Max number of different atomic species (ntypx) = 10
     Max number of k-points (npk) =  40000
     Max angular momentum in pseudopotentials (lmaxx) =  3

     Subspace diagonalization in iterative solution of the eigenvalue problem:
     a serial algorithm will be used

 
     G-vector sticks info
     --------------------
     sticks:   dense  smooth     PW     G-vecs:    dense   smooth      PW
     Sum         871     433    127                65193    23071    3805
 


     bravais-lattice index     =            4
     lattice parameter (alat)  =       7.2764  a.u.
     unit-cell volume          =    1039.7733 (a.u.)^3
     number of atoms/cell      =            2
     number of atomic types    =            1
     number of electrons       =         8.00
     number of Kohn-Sham states=            8
     kinetic-energy cutoff     =      30.0000  Ry
     charge density cutoff     =     240.0000  Ry
     convergence threshold     =      1.0E-06
     mixing beta               =       0.7000
     number of iterations used =            8  plain     mixing
     Exchange-correlation= PBE
                           (   1   4   3   4   0   0   0)

     celldm(1)=   7.276356  celldm(2)=   0.000000  celldm(3)=   3.116493
     celldm(4)=   0.000000  celldm(5)=   0.000000  celldm(6)=   0.000000

     crystal axes: (cart. coord. in units of alat)
               a(1) = (   1.000000   0.000000   0.000000 )  
               a(2) = (  -0.500000   0.866025   0.000000 )  
               a(3) = (   0.000000   0.000000   3.116493 )  

     reciprocal axes: (cart. coord. in units 2 pi/alat)
               b(1) = (  1.000000  0.577350  0.000000 )  
               b(2) = (  0.000000  1.154701  0.000000 )  
               b(3) = (  0.000000  0.000000  0.320873 )  


     PseudoPot. # 1 for Si read from file:
     /home/jesus/Documentos/Nanociencia_DFT/pseudopotenciales/Si.pbe-n-rrkjus_psl.1.0.0.UPF
     MD5 check sum: fa25574f73a70a4139f2adfbefec430c
     Pseudo is Ultrasoft + core correction, Zval =  4.0
     Generated using "atomic" code by A. Dal Corso v.6.3
     Using radial grid of 1141 points,  6 beta functions with: 
                l(1) =   0
                l(2) =   0
                l(3) =   1
                l(4) =   1
                l(5) =   2
                l(6) =   2
     Q(r) pseudized with 0 coefficients 


     atomic species   valence    mass     pseudopotential
        Si             4.00    28.08550     Si( 1.00)

      6 Sym. Ops. (no inversion) found



   Cartesian axes

     site n.     atom                  positions (alat units)
         1           Si  tau(   1) = (  -0.0000000   0.5773503   1.5329382  )
         2           Si  tau(   2) = (   0.5000000   0.2886751   1.6614235  )

     number of k points=    19  Methfessel-Paxton smearing, width (Ry)=  0.0100
                       cart. coord. in units 2pi/alat
        k(    1) = (   0.0000000   0.0000000   0.0000000), wk =   0.0160000
        k(    2) = (   0.0000000   0.0000000   0.0641747), wk =   0.0320000
        k(    3) = (   0.0000000   0.0000000   0.1283494), wk =   0.0320000
        k(    4) = (   0.0000000   0.2309401   0.0000000), wk =   0.0960000
        k(    5) = (   0.0000000   0.2309401   0.0641747), wk =   0.0960000
        k(    6) = (   0.0000000   0.2309401   0.1283494), wk =   0.0960000
        k(    7) = (   0.0000000   0.4618802   0.0000000), wk =   0.0960000
        k(    8) = (   0.0000000   0.4618802   0.0641747), wk =   0.0960000
        k(    9) = (   0.0000000   0.4618802   0.1283494), wk =   0.0960000
        k(   10) = (   0.2000000   0.3464102   0.0000000), wk =   0.0960000
        k(   11) = (   0.2000000   0.3464102   0.0641747), wk =   0.1920000
        k(   12) = (   0.2000000   0.3464102   0.1283494), wk =   0.1920000
        k(   13) = (   0.2000000   0.5773503   0.0000000), wk =   0.0960000
        k(   14) = (   0.2000000   0.5773503   0.0641747), wk =   0.1920000
        k(   15) = (   0.2000000   0.5773503   0.1283494), wk =   0.1920000
        k(   16) = (   0.0000000  -0.2309401   0.0641747), wk =   0.0960000
        k(   17) = (   0.0000000  -0.2309401   0.1283494), wk =   0.0960000
        k(   18) = (   0.0000000  -0.4618802   0.0641747), wk =   0.0960000
        k(   19) = (   0.0000000  -0.4618802   0.1283494), wk =   0.0960000

     Dense  grid:    65193 G-vectors     FFT dimensions: (  36,  36, 120)

     Smooth grid:    23071 G-vectors     FFT dimensions: (  25,  25,  80)

     Estimated max dynamical RAM per process >     234.35 MB

     Initial potential from superposition of free atoms

     starting charge    7.99888, renormalised to    8.00000

     negative rho (up, down):  2.447E-06 0.000E+00
     Starting wfcs are    8 randomized atomic wfcs

     total cpu time spent up to now is        2.0 secs

     Self-consistent Calculation

     iteration #  1     ecut=    30.00 Ry     beta= 0.70
     Davidson diagonalization with overlap
     ethr =  1.00E-02,  avg # of iterations =  4.3

     Threshold (ethr) on eigenvalues was too large:
     Diagonalizing with lowered threshold

     Davidson diagonalization with overlap
     ethr =  7.80E-04,  avg # of iterations =  1.5

     negative rho (up, down):  3.371E-07 0.000E+00

     total cpu time spent up to now is        4.6 secs

     total energy              =     -22.73545453 Ry
     estimated scf accuracy    <       0.06842127 Ry

     iteration #  2     ecut=    30.00 Ry     beta= 0.70
     Davidson diagonalization with overlap
     ethr =  8.55E-04,  avg # of iterations =  2.8

     negative rho (up, down):  5.843E-07 0.000E+00

     total cpu time spent up to now is        6.2 secs

     total energy              =     -22.74249217 Ry
     estimated scf accuracy    <       0.00196972 Ry

     iteration #  3     ecut=    30.00 Ry     beta= 0.70
     Davidson diagonalization with overlap
     ethr =  2.46E-05,  avg # of iterations =  9.4

     negative rho (up, down):  5.115E-07 0.000E+00

     total cpu time spent up to now is        8.6 secs

     total energy              =     -22.74267907 Ry
     estimated scf accuracy    <       0.00011618 Ry

     iteration #  4     ecut=    30.00 Ry     beta= 0.70
     Davidson diagonalization with overlap
     ethr =  1.45E-06,  avg # of iterations =  4.7

     negative rho (up, down):  5.249E-07 0.000E+00

     total cpu time spent up to now is       10.2 secs

     total energy              =     -22.74269166 Ry
     estimated scf accuracy    <       0.00000173 Ry

     iteration #  5     ecut=    30.00 Ry     beta= 0.70
     Davidson diagonalization with overlap
     ethr =  2.16E-08,  avg # of iterations =  2.4

     negative rho (up, down):  5.243E-07 0.000E+00

     total cpu time spent up to now is       11.8 secs

     total energy              =     -22.74269235 Ry
     estimated scf accuracy    <       0.00000162 Ry

     iteration #  6     ecut=    30.00 Ry     beta= 0.70
     Davidson diagonalization with overlap
     ethr =  2.02E-08,  avg # of iterations =  1.1

     negative rho (up, down):  5.118E-07 0.000E+00

     total cpu time spent up to now is       13.0 secs

     End of self-consistent calculation

          k = 0.0000 0.0000 0.0000 (  2895 PWs)   bands (ev):

   -12.7796  -4.9216  -2.8576  -2.8576   0.3359   0.7392   1.3532   1.3532

          k = 0.0000 0.0000 0.0642 (  2901 PWs)   bands (ev):

   -12.7796  -4.9217  -2.8576  -2.8576   0.3359   0.7534   1.3532   1.3532

          k = 0.0000 0.0000 0.1283 (  2878 PWs)   bands (ev):

   -12.7796  -4.9217  -2.8576  -2.8576   0.3359   0.7776   1.3532   1.3532

          k = 0.0000 0.2309 0.0000 (  2895 PWs)   bands (ev):

   -12.3128  -5.3872  -4.3233  -3.4921   0.3167   0.9548   2.7749   2.8697

          k = 0.0000 0.2309 0.0642 (  2898 PWs)   bands (ev):

   -12.3128  -5.3872  -4.3233  -3.4921   0.3167   0.9616   2.8206   2.8697

          k = 0.0000 0.2309 0.1283 (  2893 PWs)   bands (ev):

   -12.3128  -5.3872  -4.3233  -3.4921   0.3167   0.9734   2.8697   2.9096

          k = 0.0000 0.4619 0.0000 (  2897 PWs)   bands (ev):

   -11.0273  -8.1635  -4.1708  -3.1882  -0.6642  -0.2525   3.1875   4.8869

          k = 0.0000 0.4619 0.0642 (  2894 PWs)   bands (ev):

   -11.0273  -8.1635  -4.1709  -3.1882  -0.6643  -0.2525   3.2140   4.8863

          k = 0.0000 0.4619 0.1283 (  2886 PWs)   bands (ev):

   -11.0273  -8.1635  -4.1708  -3.1882  -0.6643  -0.2525   3.2456   4.8868

          k = 0.2000 0.3464 0.0000 (  2882 PWs)   bands (ev):

   -11.4135  -7.2349  -4.9247  -3.5171   0.1845   2.0603   2.3389   2.9749

          k = 0.2000 0.3464 0.0642 (  2881 PWs)   bands (ev):

   -11.4135  -7.2349  -4.9247  -3.5172   0.1847   2.0611   2.3389   3.0028

          k = 0.2000 0.3464 0.1283 (  2874 PWs)   bands (ev):

   -11.4135  -7.2349  -4.9247  -3.5172   0.1849   2.0624   2.3388   3.0574

          k = 0.2000 0.5774 0.0000 (  2880 PWs)   bands (ev):

   -10.1551  -8.9576  -5.6388  -2.3416  -1.2140   1.8355   2.7568   4.4738

          k = 0.2000 0.5774 0.0642 (  2864 PWs)   bands (ev):

   -10.1551  -8.9576  -5.6388  -2.3416  -1.2140   1.8356   2.7564   4.4872

          k = 0.2000 0.5774 0.1283 (  2873 PWs)   bands (ev):

   -10.1551  -8.9576  -5.6388  -2.3416  -1.2141   1.8355   2.7557   4.5096

          k = 0.0000-0.2309 0.0642 (  2898 PWs)   bands (ev):

   -12.3128  -5.3872  -4.3233  -3.4921   0.3167   0.9622   2.7666   2.8696

          k = 0.0000-0.2309 0.1283 (  2893 PWs)   bands (ev):

   -12.3128  -5.3872  -4.3233  -3.4921   0.3167   0.9738   2.8150   2.8697

          k = 0.0000-0.4619 0.0642 (  2894 PWs)   bands (ev):

   -11.0273  -8.1635  -4.1709  -3.1882  -0.6642  -0.2525   3.1995   4.8869

          k = 0.0000-0.4619 0.1283 (  2886 PWs)   bands (ev):

   -11.0273  -8.1635  -4.1708  -3.1882  -0.6643  -0.2525   3.2354   4.8867

     the Fermi energy is    -1.3286 ev

!    total energy              =     -22.74269264 Ry
     estimated scf accuracy    <       0.00000005 Ry
     smearing contrib. (-TS)   =       0.00013915 Ry
     internal energy E=F+TS    =     -22.74283179 Ry

     The total energy is F=E-TS. E is the sum of the following terms:
     one-electron contribution =     -38.14767301 Ry
     hartree contribution      =      20.37186340 Ry
     xc contribution           =     -12.15071940 Ry
     ewald contribution        =       7.18369722 Ry

     convergence has been achieved in   6 iterations

     Writing output data file /home/jesus/Documentos/Nanociencia_DFT/test.save/
 
     init_run     :      1.14s CPU      1.34s WALL (       1 calls)
     electrons    :      9.82s CPU     11.00s WALL (       1 calls)

     Called by init_run:
     wfcinit      :      0.45s CPU      0.45s WALL (       1 calls)
     potinit      :      0.13s CPU      0.16s WALL (       1 calls)
     hinit0       :      0.33s CPU      0.35s WALL (       1 calls)

     Called by electrons:
     c_bands      :      5.85s CPU      5.87s WALL (       7 calls)
     sum_band     :      2.29s CPU      2.85s WALL (       7 calls)
     v_of_rho     :      0.58s CPU      0.62s WALL (       7 calls)
     newd         :      1.29s CPU      2.00s WALL (       7 calls)
     mix_rho      :      0.06s CPU      0.06s WALL (       7 calls)

     Called by c_bands:
     init_us_2    :      0.26s CPU      0.26s WALL (     285 calls)
     cegterg      :      4.62s CPU      4.64s WALL (     133 calls)

     Called by *egterg:
     cdiaghg      :      0.08s CPU      0.08s WALL (     611 calls)
     h_psi        :      4.30s CPU      4.32s WALL (     649 calls)
     s_psi        :      0.18s CPU      0.18s WALL (     649 calls)
     g_psi        :      0.02s CPU      0.02s WALL (     497 calls)

     Called by h_psi:
     h_psi:calbec :      0.21s CPU      0.21s WALL (     649 calls)
     vloc_psi     :      3.88s CPU      3.89s WALL (     649 calls)
     add_vuspsi   :      0.19s CPU      0.19s WALL (     649 calls)

     General routines
     calbec       :      0.26s CPU      0.26s WALL (     782 calls)
     fft          :      0.22s CPU      0.24s WALL (      90 calls)
     ffts         :      0.01s CPU      0.01s WALL (      14 calls)
     fftw         :      3.86s CPU      3.88s WALL (    7246 calls)
     interpolate  :      0.03s CPU      0.03s WALL (       7 calls)
 
     Parallel routines
 
     PWSCF        :     11.65s CPU     13.09s WALL

 
   This run was terminated on:   9:45:46  17Mar2021            

=------------------------------------------------------------------------------=
   JOB DONE.
=------------------------------------------------------------------------------=
