
     Program PWSCF v.6.6 starts on 31Mar2021 at 15: 5:34 

     This program is part of the open-source Quantum ESPRESSO suite
     for quantum simulation of materials; please cite
         "P. Giannozzi et al., J. Phys.:Condens. Matter 21 395502 (2009);
         "P. Giannozzi et al., J. Phys.:Condens. Matter 29 465901 (2017);
          URL http://www.quantum-espresso.org", 
     in publications or presentations arising from this work. More details at
     http://www.quantum-espresso.org/quote

     Parallel version (MPI), running on     1 processors

     MPI processes distributed on     1 nodes
     Fft bands division:     nmany     =       1
     Waiting for input...
     Reading input from standard input
Warning: card &CELL ignored
Warning: card   CELL_DYNAMICS='BFGS', ignored
Warning: card   CELL_DOFREE='ALL', ignored
Warning: card / ignored

     Current dimensions of program PWSCF are:
     Max number of different atomic species (ntypx) = 10
     Max number of k-points (npk) =  40000
     Max angular momentum in pseudopotentials (lmaxx) =  3
     file H.pbe-kjpaw_psl.1.0.0.UPF: wavefunction(s)  1S renormalized

     Subspace diagonalization in iterative solution of the eigenvalue problem:
     a serial algorithm will be used

     Message from routine setup:
     using ibrav=0 with symmetry is DISCOURAGED, use correct ibrav instead
 
     G-vector sticks info
     --------------------
     sticks:   dense  smooth     PW     G-vecs:    dense   smooth      PW
     Sum         769     511    163                90535    49301    8617
 


     bravais-lattice index     =            0
     lattice parameter (alat)  =       7.3457  a.u.
     unit-cell volume          =    1765.6965 (a.u.)^3
     number of atoms/cell      =            4
     number of atomic types    =            2
     number of electrons       =        10.00
     number of Kohn-Sham states=            9
     kinetic-energy cutoff     =      35.0000  Ry
     charge density cutoff     =     210.0000  Ry
     convergence threshold     =      1.0E-06
     mixing beta               =       0.7000
     number of iterations used =            8  plain     mixing
     Exchange-correlation= SLA PW PBX PBC
                           (   1   4   3   4   0   0   0)

     celldm(1)=   7.345687  celldm(2)=   0.000000  celldm(3)=   0.000000
     celldm(4)=   0.000000  celldm(5)=   0.000000  celldm(6)=   0.000000

     crystal axes: (cart. coord. in units of alat)
               a(1) = (   0.500000   0.866000   0.000000 )  
               a(2) = (  -0.500000   0.866000   0.000000 )  
               a(3) = (   0.000000   0.000000   5.144000 )  

     reciprocal axes: (cart. coord. in units 2 pi/alat)
               b(1) = (  1.000000  0.577367  0.000000 )  
               b(2) = ( -1.000000  0.577367  0.000000 )  
               b(3) = (  0.000000  0.000000  0.194401 )  


     PseudoPot. # 1 for Si read from file:
     /home/jesus/Nanociencia_DFT/pseudopotenciales/Si.pbe-n-rrkjus_psl.1.0.0.UPF
     MD5 check sum: fa25574f73a70a4139f2adfbefec430c
     Pseudo is Ultrasoft + core correction, Zval =  4.0
     Generated using "atomic" code by A. Dal Corso v.6.3
     Using radial grid of 1141 points,  6 beta functions with: 
                l(1) =   0
                l(2) =   0
                l(3) =   1
                l(4) =   1
                l(5) =   2
                l(6) =   2
     Q(r) pseudized with 0 coefficients 


     PseudoPot. # 2 for H  read from file:
     /home/jesus/Nanociencia_DFT/pseudopotenciales/H.pbe-kjpaw_psl.1.0.0.UPF
     MD5 check sum: d81a744832360e4a8af0b0b5b123bc2a
     Pseudo is Projector augmented-wave, Zval =  1.0
     Generated using "atomic" code by A. Dal Corso v.6.3MaX
     Shape of augmentation charge: PSQ
     Using radial grid of  929 points,  2 beta functions with: 
                l(1) =   0
                l(2) =   0
     Q(r) pseudized with 0 coefficients 


     atomic species   valence    mass     pseudopotential
        Si             4.00    28.08550     Si( 1.00)
        H              1.00     1.00800     H ( 1.00)

      2 Sym. Ops. (no inversion) found



   Cartesian axes

     site n.     atom                  positions (alat units)
         1           H   tau(   1) = (   0.0000000   0.0000000   0.0000000  )
         2           Si  tau(   2) = (   0.0000000   0.0000000   0.3858000  )
         3           Si  tau(   3) = (   0.0000000   0.5767560   0.5709840  )
         4           H   tau(   4) = (   0.0000000   0.5767560   0.9567840  )

     number of k points=     9  Methfessel-Paxton smearing, width (Ry)=  0.0100
                       cart. coord. in units 2pi/alat
        k(    1) = (   0.0000000   0.0000000   0.0000000), wk =   0.0800000
        k(    2) = (  -0.2000000   0.1154734   0.0000000), wk =   0.3200000
        k(    3) = (  -0.4000000   0.2309469   0.0000000), wk =   0.3200000
        k(    4) = (   0.0000000   0.2309469   0.0000000), wk =   0.1600000
        k(    5) = (  -0.2000000   0.3464203   0.0000000), wk =   0.3200000
        k(    6) = (   0.6000000  -0.1154734   0.0000000), wk =   0.3200000
        k(    7) = (   0.4000000   0.0000000   0.0000000), wk =   0.1600000
        k(    8) = (   0.0000000   0.4618938   0.0000000), wk =   0.1600000
        k(    9) = (   0.8000000   0.0000000   0.0000000), wk =   0.1600000

     Dense  grid:    90535 G-vectors     FFT dimensions: (  36,  36, 180)

     Smooth grid:    49301 G-vectors     FFT dimensions: (  27,  27, 144)

     Estimated max dynamical RAM per process >     330.40 MB

     Initial potential from superposition of free atoms

     starting charge    9.99886, renormalised to   10.00000

     negative rho (up, down):  1.007E-04 0.000E+00
     Starting wfcs are   10 randomized atomic wfcs
     Checking if some PAW data can be deallocated... 

     total cpu time spent up to now is        3.6 secs

     Self-consistent Calculation

     iteration #  1     ecut=    35.00 Ry     beta= 0.70
     Davidson diagonalization with overlap
     ethr =  1.00E-02,  avg # of iterations =  3.4

     negative rho (up, down):  8.405E-05 0.000E+00

     total cpu time spent up to now is        6.3 secs

     total energy              =     -25.14834699 Ry
     estimated scf accuracy    <       0.16759940 Ry

     iteration #  2     ecut=    35.00 Ry     beta= 0.70
     Davidson diagonalization with overlap
     ethr =  1.68E-03,  avg # of iterations =  1.6

     negative rho (up, down):  9.758E-05 0.000E+00

     total cpu time spent up to now is        8.4 secs

     total energy              =     -25.15844200 Ry
     estimated scf accuracy    <       0.00464703 Ry

     iteration #  3     ecut=    35.00 Ry     beta= 0.70
     Davidson diagonalization with overlap
     ethr =  4.65E-05,  avg # of iterations =  7.7

     negative rho (up, down):  1.005E-04 0.000E+00

     total cpu time spent up to now is       11.4 secs

     total energy              =     -25.15919146 Ry
     estimated scf accuracy    <       0.00025739 Ry

     iteration #  4     ecut=    35.00 Ry     beta= 0.70
     Davidson diagonalization with overlap
     ethr =  2.57E-06,  avg # of iterations =  8.0

     negative rho (up, down):  1.033E-04 0.000E+00

     total cpu time spent up to now is       14.1 secs

     total energy              =     -25.15923001 Ry
     estimated scf accuracy    <       0.00003043 Ry

     iteration #  5     ecut=    35.00 Ry     beta= 0.70
     Davidson diagonalization with overlap
     ethr =  3.04E-07,  avg # of iterations =  1.8

     negative rho (up, down):  1.033E-04 0.000E+00

     total cpu time spent up to now is       16.3 secs

     total energy              =     -25.15923377 Ry
     estimated scf accuracy    <       0.00001962 Ry

     iteration #  6     ecut=    35.00 Ry     beta= 0.70
     Davidson diagonalization with overlap
     ethr =  1.96E-07,  avg # of iterations =  1.1

     negative rho (up, down):  1.034E-04 0.000E+00

     total cpu time spent up to now is       18.0 secs

     End of self-consistent calculation

          k = 0.0000 0.0000 0.0000 (  6083 PWs)   bands (ev):

   -13.6940  -9.1368  -5.8704  -3.3757  -3.3610  -1.0370   0.5476   0.5639
     0.7965

          k =-0.2000 0.1155 0.0000 (  6170 PWs)   bands (ev):

   -13.2626  -9.0749  -5.9001  -5.4757  -4.0143  -0.6165   0.9334   1.4334
     1.9043

          k =-0.4000 0.2309 0.0000 (  6188 PWs)   bands (ev):

   -12.1104  -9.7691  -6.9081  -6.0145  -4.6935  -1.1401   0.5327   1.3591
     3.0405

          k = 0.0000 0.2309 0.0000 (  6170 PWs)   bands (ev):

   -13.2622  -9.0755  -5.9012  -5.4811  -4.0070  -0.6107   0.9335   1.4332
     1.9046

          k =-0.2000 0.3464 0.0000 (  6183 PWs)   bands (ev):

   -12.4455  -9.3774  -6.4937  -6.0826  -5.3377   0.7374   0.8172   1.7722
     1.9382

          k = 0.6000-0.1155 0.0000 (  6201 PWs)   bands (ev):

   -11.3701 -10.3464  -6.7697  -6.1607  -6.0003   0.5297   1.1034   1.4370
     1.7279

          k = 0.4000 0.0000 0.0000 (  6183 PWs)   bands (ev):

   -12.4470  -9.3742  -6.4898  -6.0814  -5.3452   0.7412   0.8131   1.9409
     2.1743

          k = 0.0000 0.4619 0.0000 (  6188 PWs)   bands (ev):

   -12.1069  -9.7756  -6.9085  -6.0168  -4.6883  -1.1343   0.5343   1.3564
     3.0402

          k = 0.8000 0.0000 0.0000 (  6201 PWs)   bands (ev):

   -11.3633 -10.3558  -6.7693  -6.1632  -5.9959   0.5312   1.1094   1.4339
     1.7286

     the Fermi energy is    -3.2530 ev

!    total energy              =     -25.15923680 Ry
     estimated scf accuracy    <       0.00000042 Ry
     smearing contrib. (-TS)   =       0.00004689 Ry
     internal energy E=F+TS    =     -25.15928368 Ry

     The total energy is F=E-TS. E is the sum of the following terms:
     one-electron contribution =    -110.89370661 Ry
     hartree contribution      =      56.77041091 Ry
     xc contribution           =     -13.65030018 Ry
     ewald contribution        =      42.61459434 Ry
     one-center paw contrib.   =      -0.00028215 Ry

     convergence has been achieved in   6 iterations

     Writing output data file /home/jesus/Documentos/Nanociencia_DFT/silicano.save/
 
     init_run     :      2.23s CPU      2.50s WALL (       1 calls)
     electrons    :     12.77s CPU     14.36s WALL (       1 calls)

     Called by init_run:
     wfcinit      :      0.60s CPU      0.63s WALL (       1 calls)
     potinit      :      0.40s CPU      0.43s WALL (       1 calls)
     hinit0       :      0.75s CPU      0.78s WALL (       1 calls)

     Called by electrons:
     c_bands      :      7.05s CPU      7.08s WALL (       6 calls)
     sum_band     :      3.28s CPU      4.06s WALL (       6 calls)
     v_of_rho     :      0.83s CPU      0.87s WALL (       7 calls)
     newd         :      2.00s CPU      2.91s WALL (       7 calls)
     PAW_pot      :      0.01s CPU      0.01s WALL (       7 calls)
     mix_rho      :      0.10s CPU      0.10s WALL (       6 calls)

     Called by c_bands:
     init_us_2    :      0.29s CPU      0.29s WALL (     117 calls)
     cegterg      :      5.93s CPU      5.96s WALL (      54 calls)

     Called by *egterg:
     cdiaghg      :      0.04s CPU      0.04s WALL (     266 calls)
     h_psi        :      5.62s CPU      5.67s WALL (     275 calls)
     s_psi        :      0.22s CPU      0.23s WALL (     275 calls)
     g_psi        :      0.02s CPU      0.02s WALL (     212 calls)

     Called by h_psi:
     h_psi:calbec :      0.24s CPU      0.25s WALL (     275 calls)
     vloc_psi     :      5.11s CPU      5.16s WALL (     275 calls)
     add_vuspsi   :      0.23s CPU      0.23s WALL (     275 calls)

     General routines
     calbec       :      0.31s CPU      0.31s WALL (     329 calls)
     fft          :      0.30s CPU      0.33s WALL (      89 calls)
     ffts         :      0.02s CPU      0.02s WALL (      13 calls)
     fftw         :      5.03s CPU      5.07s WALL (    3514 calls)
     interpolate  :      0.05s CPU      0.05s WALL (       7 calls)
 
     Parallel routines
 
     PWSCF        :     16.05s CPU     18.07s WALL

 
   This run was terminated on:  15: 5:52  31Mar2021            

=------------------------------------------------------------------------------=
   JOB DONE.
=------------------------------------------------------------------------------=
