
     Program PWSCF v.6.6 starts on 31Mar2021 at 15:14: 4 

     This program is part of the open-source Quantum ESPRESSO suite
     for quantum simulation of materials; please cite
         "P. Giannozzi et al., J. Phys.:Condens. Matter 21 395502 (2009);
         "P. Giannozzi et al., J. Phys.:Condens. Matter 29 465901 (2017);
          URL http://www.quantum-espresso.org", 
     in publications or presentations arising from this work. More details at
     http://www.quantum-espresso.org/quote

     Parallel version (MPI), running on     1 processors

     MPI processes distributed on     1 nodes
     Fft bands division:     nmany     =       1
     Waiting for input...
     Reading input from standard input
Warning: card &CELL ignored
Warning: card   CELL_DYNAMICS='BFGS', ignored
Warning: card   CELL_DOFREE='ALL', ignored
Warning: card / ignored

     Current dimensions of program PWSCF are:
     Max number of different atomic species (ntypx) = 10
     Max number of k-points (npk) =  40000
     Max angular momentum in pseudopotentials (lmaxx) =  3
     file H.pbe-kjpaw_psl.1.0.0.UPF: wavefunction(s)  1S renormalized

     Subspace diagonalization in iterative solution of the eigenvalue problem:
     a serial algorithm will be used

     Message from routine setup:
     using ibrav=0 with symmetry is DISCOURAGED, use correct ibrav instead
 
     G-vector sticks info
     --------------------
     sticks:   dense  smooth     PW     G-vecs:    dense   smooth      PW
     Sum         769     511    163                90535    49301    9087
 


     bravais-lattice index     =            0
     lattice parameter (alat)  =       7.3457  a.u.
     unit-cell volume          =    1765.6965 (a.u.)^3
     number of atoms/cell      =            4
     number of atomic types    =            2
     number of electrons       =        10.00
     number of Kohn-Sham states=            9
     kinetic-energy cutoff     =      35.0000  Ry
     charge density cutoff     =     210.0000  Ry
     convergence threshold     =      1.0E-06
     mixing beta               =       0.7000
     number of iterations used =            8  plain     mixing
     Exchange-correlation= SLA PW PBX PBC
                           (   1   4   3   4   0   0   0)

     celldm(1)=   7.345687  celldm(2)=   0.000000  celldm(3)=   0.000000
     celldm(4)=   0.000000  celldm(5)=   0.000000  celldm(6)=   0.000000

     crystal axes: (cart. coord. in units of alat)
               a(1) = (   0.500000   0.866000   0.000000 )  
               a(2) = (  -0.500000   0.866000   0.000000 )  
               a(3) = (   0.000000   0.000000   5.144000 )  

     reciprocal axes: (cart. coord. in units 2 pi/alat)
               b(1) = (  1.000000  0.577367  0.000000 )  
               b(2) = ( -1.000000  0.577367  0.000000 )  
               b(3) = (  0.000000  0.000000  0.194401 )  


     PseudoPot. # 1 for Si read from file:
     /home/jesus/Nanociencia_DFT/pseudopotenciales/Si.pbe-n-rrkjus_psl.1.0.0.UPF
     MD5 check sum: fa25574f73a70a4139f2adfbefec430c
     Pseudo is Ultrasoft + core correction, Zval =  4.0
     Generated using "atomic" code by A. Dal Corso v.6.3
     Using radial grid of 1141 points,  6 beta functions with: 
                l(1) =   0
                l(2) =   0
                l(3) =   1
                l(4) =   1
                l(5) =   2
                l(6) =   2
     Q(r) pseudized with 0 coefficients 


     PseudoPot. # 2 for H  read from file:
     /home/jesus/Nanociencia_DFT/pseudopotenciales/H.pbe-kjpaw_psl.1.0.0.UPF
     MD5 check sum: d81a744832360e4a8af0b0b5b123bc2a
     Pseudo is Projector augmented-wave, Zval =  1.0
     Generated using "atomic" code by A. Dal Corso v.6.3MaX
     Shape of augmentation charge: PSQ
     Using radial grid of  929 points,  2 beta functions with: 
                l(1) =   0
                l(2) =   0
     Q(r) pseudized with 0 coefficients 


     atomic species   valence    mass     pseudopotential
        Si             4.00    28.08550     Si( 1.00)
        H              1.00     1.00800     H ( 1.00)

      2 Sym. Ops. (no inversion) found



   Cartesian axes

     site n.     atom                  positions (alat units)
         1           H   tau(   1) = (   0.0000000   0.0000000   0.0000000  )
         2           Si  tau(   2) = (   0.0000000   0.0000000   0.3858000  )
         3           Si  tau(   3) = (   0.0000000   0.5767560   0.5709840  )
         4           H   tau(   4) = (   0.0000000   0.5767560   0.9567840  )

     number of k points=    91  Methfessel-Paxton smearing, width (Ry)=  0.0100
                       cart. coord. in units 2pi/alat
        k(    1) = (   0.0000000   0.0000000   0.0000000), wk =   0.0061728
        k(    2) = (  -0.0555556   0.0320760   0.0000000), wk =   0.0246914
        k(    3) = (  -0.1111111   0.0641519   0.0000000), wk =   0.0246914
        k(    4) = (  -0.1666667   0.0962279   0.0000000), wk =   0.0246914
        k(    5) = (  -0.2222222   0.1283038   0.0000000), wk =   0.0246914
        k(    6) = (  -0.2777778   0.1603798   0.0000000), wk =   0.0246914
        k(    7) = (  -0.3333333   0.1924557   0.0000000), wk =   0.0246914
        k(    8) = (  -0.3888889   0.2245317   0.0000000), wk =   0.0246914
        k(    9) = (  -0.4444444   0.2566076   0.0000000), wk =   0.0246914
        k(   10) = (   0.5000000  -0.2886836   0.0000000), wk =   0.0123457
        k(   11) = (   0.0000000   0.0641519   0.0000000), wk =   0.0123457
        k(   12) = (  -0.0555556   0.0962279   0.0000000), wk =   0.0246914
        k(   13) = (  -0.1111111   0.1283038   0.0000000), wk =   0.0246914
        k(   14) = (  -0.1666667   0.1603798   0.0000000), wk =   0.0246914
        k(   15) = (  -0.2222222   0.1924557   0.0000000), wk =   0.0246914
        k(   16) = (  -0.2777778   0.2245317   0.0000000), wk =   0.0246914
        k(   17) = (  -0.3333333   0.2566076   0.0000000), wk =   0.0246914
        k(   18) = (  -0.3888889   0.2886836   0.0000000), wk =   0.0246914
        k(   19) = (   0.5555556  -0.2566076   0.0000000), wk =   0.0246914
        k(   20) = (   0.5000000  -0.2245317   0.0000000), wk =   0.0246914
        k(   21) = (   0.4444444  -0.1924557   0.0000000), wk =   0.0246914
        k(   22) = (   0.3888889  -0.1603798   0.0000000), wk =   0.0246914
        k(   23) = (   0.3333333  -0.1283038   0.0000000), wk =   0.0246914
        k(   24) = (   0.2777778  -0.0962279   0.0000000), wk =   0.0246914
        k(   25) = (   0.2222222  -0.0641519   0.0000000), wk =   0.0246914
        k(   26) = (   0.1666667  -0.0320760   0.0000000), wk =   0.0246914
        k(   27) = (   0.1111111  -0.0000000   0.0000000), wk =   0.0123457
        k(   28) = (   0.0000000   0.1283038   0.0000000), wk =   0.0123457
        k(   29) = (  -0.0555556   0.1603798   0.0000000), wk =   0.0246914
        k(   30) = (  -0.1111111   0.1924557   0.0000000), wk =   0.0246914
        k(   31) = (  -0.1666667   0.2245317   0.0000000), wk =   0.0246914
        k(   32) = (  -0.2222222   0.2566076   0.0000000), wk =   0.0246914
        k(   33) = (  -0.2777778   0.2886836   0.0000000), wk =   0.0246914
        k(   34) = (  -0.3333333   0.3207596   0.0000000), wk =   0.0246914
        k(   35) = (   0.6111111  -0.2245317   0.0000000), wk =   0.0246914
        k(   36) = (   0.5555556  -0.1924557   0.0000000), wk =   0.0246914
        k(   37) = (   0.5000000  -0.1603798   0.0000000), wk =   0.0246914
        k(   38) = (   0.4444444  -0.1283038   0.0000000), wk =   0.0246914
        k(   39) = (   0.3888889  -0.0962279   0.0000000), wk =   0.0246914
        k(   40) = (   0.3333333  -0.0641519   0.0000000), wk =   0.0246914
        k(   41) = (   0.2777778  -0.0320760   0.0000000), wk =   0.0246914
        k(   42) = (   0.2222222  -0.0000000   0.0000000), wk =   0.0123457
        k(   43) = (   0.0000000   0.1924557   0.0000000), wk =   0.0123457
        k(   44) = (  -0.0555556   0.2245317   0.0000000), wk =   0.0246914
        k(   45) = (  -0.1111111   0.2566076   0.0000000), wk =   0.0246914
        k(   46) = (  -0.1666667   0.2886836   0.0000000), wk =   0.0246914
        k(   47) = (  -0.2222222   0.3207596   0.0000000), wk =   0.0246914
        k(   48) = (  -0.2777778   0.3528355   0.0000000), wk =   0.0246914
        k(   49) = (   0.6666667  -0.1924557   0.0000000), wk =   0.0246914
        k(   50) = (   0.6111111  -0.1603798   0.0000000), wk =   0.0246914
        k(   51) = (   0.5555556  -0.1283038   0.0000000), wk =   0.0246914
        k(   52) = (   0.5000000  -0.0962279   0.0000000), wk =   0.0246914
        k(   53) = (   0.4444444  -0.0641519   0.0000000), wk =   0.0246914
        k(   54) = (   0.3888889  -0.0320760   0.0000000), wk =   0.0246914
        k(   55) = (   0.3333333   0.0000000   0.0000000), wk =   0.0123457
        k(   56) = (   0.0000000   0.2566076   0.0000000), wk =   0.0123457
        k(   57) = (  -0.0555556   0.2886836   0.0000000), wk =   0.0246914
        k(   58) = (  -0.1111111   0.3207596   0.0000000), wk =   0.0246914
        k(   59) = (  -0.1666667   0.3528355   0.0000000), wk =   0.0246914
        k(   60) = (  -0.2222222   0.3849115   0.0000000), wk =   0.0246914
        k(   61) = (   0.7222222  -0.1603798   0.0000000), wk =   0.0246914
        k(   62) = (   0.6666667  -0.1283038   0.0000000), wk =   0.0246914
        k(   63) = (   0.6111111  -0.0962279   0.0000000), wk =   0.0246914
        k(   64) = (   0.5555556  -0.0641519   0.0000000), wk =   0.0246914
        k(   65) = (   0.5000000  -0.0320760   0.0000000), wk =   0.0246914
        k(   66) = (   0.4444444   0.0000000   0.0000000), wk =   0.0123457
        k(   67) = (   0.0000000   0.3207596   0.0000000), wk =   0.0123457
        k(   68) = (  -0.0555556   0.3528355   0.0000000), wk =   0.0246914
        k(   69) = (  -0.1111111   0.3849115   0.0000000), wk =   0.0246914
        k(   70) = (  -0.1666667   0.4169874   0.0000000), wk =   0.0246914
        k(   71) = (   0.7777778  -0.1283038   0.0000000), wk =   0.0246914
        k(   72) = (   0.7222222  -0.0962279   0.0000000), wk =   0.0246914
        k(   73) = (   0.6666667  -0.0641519   0.0000000), wk =   0.0246914
        k(   74) = (   0.6111111  -0.0320760   0.0000000), wk =   0.0246914
        k(   75) = (   0.5555556   0.0000000   0.0000000), wk =   0.0123457
        k(   76) = (   0.0000000   0.3849115   0.0000000), wk =   0.0123457
        k(   77) = (  -0.0555556   0.4169874   0.0000000), wk =   0.0246914
        k(   78) = (  -0.1111111   0.4490634   0.0000000), wk =   0.0246914
        k(   79) = (   0.8333333  -0.0962279   0.0000000), wk =   0.0246914
        k(   80) = (   0.7777778  -0.0641519   0.0000000), wk =   0.0246914
        k(   81) = (   0.7222222  -0.0320760   0.0000000), wk =   0.0246914
        k(   82) = (   0.6666667  -0.0000000   0.0000000), wk =   0.0123457
        k(   83) = (   0.0000000   0.4490634   0.0000000), wk =   0.0123457
        k(   84) = (  -0.0555556   0.4811393   0.0000000), wk =   0.0246914
        k(   85) = (   0.8888889  -0.0641519   0.0000000), wk =   0.0246914
        k(   86) = (   0.8333333  -0.0320760   0.0000000), wk =   0.0246914
        k(   87) = (   0.7777778   0.0000000   0.0000000), wk =   0.0123457
        k(   88) = (   0.0000000   0.5132153   0.0000000), wk =   0.0123457
        k(   89) = (   0.9444444  -0.0320760   0.0000000), wk =   0.0246914
        k(   90) = (   0.8888889   0.0000000   0.0000000), wk =   0.0123457
        k(   91) = (   0.0000000  -0.5773672   0.0000000), wk =   0.0061728

     Dense  grid:    90535 G-vectors     FFT dimensions: (  36,  36, 180)

     Smooth grid:    49301 G-vectors     FFT dimensions: (  27,  27, 144)

     Estimated max dynamical RAM per process >     399.92 MB

     Initial potential from superposition of free atoms

     starting charge    9.99886, renormalised to   10.00000

     negative rho (up, down):  1.007E-04 0.000E+00
     Starting wfcs are   10 randomized atomic wfcs
     Checking if some PAW data can be deallocated... 

     total cpu time spent up to now is        5.6 secs

     Self-consistent Calculation

     iteration #  1     ecut=    35.00 Ry     beta= 0.70
     Davidson diagonalization with overlap
     ethr =  1.00E-02,  avg # of iterations =  3.6

     negative rho (up, down):  8.270E-05 0.000E+00

     total cpu time spent up to now is       19.3 secs

     total energy              =     -25.15094618 Ry
     estimated scf accuracy    <       0.16578919 Ry

     iteration #  2     ecut=    35.00 Ry     beta= 0.70
     Davidson diagonalization with overlap
     ethr =  1.66E-03,  avg # of iterations =  1.2

     negative rho (up, down):  9.799E-05 0.000E+00

     total cpu time spent up to now is       28.8 secs

     total energy              =     -25.16089519 Ry
     estimated scf accuracy    <       0.00460293 Ry

     iteration #  3     ecut=    35.00 Ry     beta= 0.70
     Davidson diagonalization with overlap
     c_bands:  1 eigenvalues not converged
     c_bands:  1 eigenvalues not converged
     c_bands:  1 eigenvalues not converged
     ethr =  4.60E-05,  avg # of iterations =  9.2

     negative rho (up, down):  1.002E-04 0.000E+00

     total cpu time spent up to now is       46.8 secs

     total energy              =     -25.16168070 Ry
     estimated scf accuracy    <       0.00025585 Ry

     iteration #  4     ecut=    35.00 Ry     beta= 0.70
     Davidson diagonalization with overlap
     c_bands:  1 eigenvalues not converged
     ethr =  2.56E-06,  avg # of iterations =  6.7

     negative rho (up, down):  1.032E-04 0.000E+00

     total cpu time spent up to now is       61.0 secs

     total energy              =     -25.16172354 Ry
     estimated scf accuracy    <       0.00002395 Ry

     iteration #  5     ecut=    35.00 Ry     beta= 0.70
     Davidson diagonalization with overlap
     ethr =  2.40E-07,  avg # of iterations =  1.7

     negative rho (up, down):  1.032E-04 0.000E+00

     total cpu time spent up to now is       70.9 secs

     total energy              =     -25.16172650 Ry
     estimated scf accuracy    <       0.00000102 Ry

     iteration #  6     ecut=    35.00 Ry     beta= 0.70
     Davidson diagonalization with overlap
     ethr =  1.02E-08,  avg # of iterations =  2.1

     negative rho (up, down):  1.034E-04 0.000E+00

     total cpu time spent up to now is       81.8 secs

     End of self-consistent calculation

          k = 0.0000 0.0000 0.0000 (  6083 PWs)   bands (ev):

   -13.7021  -9.1415  -5.8747  -3.3865  -3.3706  -1.0430   0.5411   0.5581
     0.7949

          k =-0.0556 0.0321 0.0000 (  6116 PWs)   bands (ev):

   -13.6684  -9.1322  -5.8739  -3.6860  -3.4521  -0.7989   0.5064   0.6843
     0.8445

          k =-0.1111 0.0642 0.0000 (  6120 PWs)   bands (ev):

   -13.5675  -9.1080  -5.8734  -4.3474  -3.6343  -0.4786   0.5426   1.0248
     1.0429

          k =-0.1667 0.0962 0.0000 (  6162 PWs)   bands (ev):

   -13.4011  -9.0836  -5.8821  -5.0766  -3.8735  -0.5116   0.7815   1.3290
     1.5579

          k =-0.2222 0.1283 0.0000 (  6178 PWs)   bands (ev):

   -13.1718  -9.0881  -5.9544  -5.7050  -4.1224  -0.7053   1.0191   1.4414
     2.0433

          k =-0.2778 0.1604 0.0000 (  6174 PWs)   bands (ev):

   -12.8850  -9.1694  -6.3715  -5.8773  -4.3505  -0.8982   1.1678   1.2934
     2.2537

          k =-0.3333 0.1925 0.0000 (  6192 PWs)   bands (ev):

   -12.5505  -9.3772  -6.7278  -5.9389  -4.5400  -1.0443   0.8929   1.3342
     2.9414

          k =-0.3889 0.2245 0.0000 (  6184 PWs)   bands (ev):

   -12.1901  -9.7039  -6.8976  -6.0061  -4.6809  -1.1350   0.5809   1.3561
     3.0306

          k =-0.4444 0.2566 0.0000 (  6182 PWs)   bands (ev):

   -11.8597 -10.0480  -6.9440  -6.0660  -4.7673  -1.1790   0.3689   1.3449
     3.0380

          k = 0.5000-0.2887 0.0000 (  6174 PWs)   bands (ev):

   -11.7047 -10.2138  -6.9478  -6.0910  -4.7964  -1.1911   0.2942   1.3370
     3.0343

          k = 0.0000 0.0642 0.0000 (  6116 PWs)   bands (ev):

   -13.6683  -9.1322  -5.8739  -3.6963  -3.4409  -0.7996   0.5178   0.6719
     0.8447

          k =-0.0556 0.0962 0.0000 (  6111 PWs)   bands (ev):

   -13.6010  -9.1153  -5.8731  -4.1508  -3.5888  -0.4893   0.4472   0.8516
     1.0618

          k =-0.1111 0.1283 0.0000 (  6127 PWs)   bands (ev):

   -13.4673  -9.0907  -5.8763  -4.7978  -3.8379  -0.2766   0.5168   1.0439
     1.4740

          k =-0.1667 0.1604 0.0000 (  6162 PWs)   bands (ev):

   -13.2692  -9.0794  -5.8987  -5.4618  -4.1147  -0.3931   0.8305   1.3375
     1.6548

          k =-0.2222 0.1925 0.0000 (  6142 PWs)   bands (ev):

   -13.0107  -9.1196  -6.1347  -5.8533  -4.3759  -0.5879   1.0848   1.4106
     1.9774

          k =-0.2778 0.2245 0.0000 (  6180 PWs)   bands (ev):

   -12.6987  -9.2635  -6.5613  -5.9208  -4.5990  -0.7535   1.0894   1.2914
     2.2593

          k =-0.3333 0.2566 0.0000 (  6187 PWs)   bands (ev):

   -12.3475  -9.5382  -6.8157  -5.9833  -4.7731  -0.8650   0.7629   1.3410
     2.5433

          k =-0.3889 0.2887 0.0000 (  6188 PWs)   bands (ev):

   -11.9908  -9.8908  -6.9135  -6.0469  -4.8923  -0.9233   0.4869   1.3508
     2.7528

          k = 0.5556-0.2566 0.0000 (  6182 PWs)   bands (ev):

   -11.7218 -10.1750  -6.9326  -6.0899  -4.9532  -0.9441   0.3338   1.3466
     2.8016

          k = 0.5000-0.2245 0.0000 (  6182 PWs)   bands (ev):

   -11.7221 -10.1747  -6.9326  -6.0897  -4.9536  -0.9439   0.3337   1.3466
     2.8010

          k = 0.4444-0.1925 0.0000 (  6188 PWs)   bands (ev):

   -11.9912  -9.8900  -6.9136  -6.0463  -4.8935  -0.9228   0.4866   1.3509
     2.7516

          k = 0.3889-0.1604 0.0000 (  6187 PWs)   bands (ev):

   -12.3480  -9.5373  -6.8156  -5.9824  -4.7751  -0.8641   0.7628   1.3409
     2.5417

          k = 0.3333-0.1283 0.0000 (  6180 PWs)   bands (ev):

   -12.6991  -9.2627  -6.5605  -5.9198  -4.6020  -0.7525   1.0904   1.2904
     2.2571

          k = 0.2778-0.0962 0.0000 (  6142 PWs)   bands (ev):

   -13.0110  -9.1190  -6.1333  -5.8519  -4.3799  -0.5866   1.0840   1.4120
     1.9727

          k = 0.2222-0.0642 0.0000 (  6162 PWs)   bands (ev):

   -13.2695  -9.0791  -5.8984  -5.4577  -4.1203  -0.3911   0.8267   1.3386
     1.6500

          k = 0.1667-0.0321 0.0000 (  6127 PWs)   bands (ev):

   -13.4674  -9.0905  -5.8761  -4.7914  -3.8460  -0.2732   0.5079   1.0451
     1.4726

          k = 0.1111-0.0000 0.0000 (  6111 PWs)   bands (ev):

   -13.6011  -9.1153  -5.8730  -4.1408  -3.6005  -0.4871   0.4360   0.8569
     1.0687

          k = 0.0000 0.1283 0.0000 (  6120 PWs)   bands (ev):

   -13.5674  -9.1081  -5.8736  -4.3560  -3.6243  -0.4767   0.5482   1.0252
     1.0321

          k =-0.0556 0.1604 0.0000 (  6127 PWs)   bands (ev):

   -13.4671  -9.0908  -5.8765  -4.8012  -3.8340  -0.2721   0.5143   1.0423
     1.4722

          k =-0.1111 0.1925 0.0000 (  6145 PWs)   bands (ev):

   -13.3017  -9.0783  -5.8877  -5.3356  -4.1694   0.0790   0.4155   1.1885
     1.5997

          k =-0.1667 0.2245 0.0000 (  6157 PWs)   bands (ev):

   -13.0740  -9.0992  -5.9453  -5.8413  -4.5129   0.0356   0.7401   1.4311
     1.6904

          k =-0.2222 0.2566 0.0000 (  6175 PWs)   bands (ev):

   -12.7889  -9.1978  -6.3512  -5.9376  -4.8071  -0.1298   1.0602   1.4219
     1.9220

          k =-0.2778 0.2887 0.0000 (  6182 PWs)   bands (ev):

   -12.4560  -9.4143  -6.6662  -5.9936  -5.0374  -0.2521   1.0467   1.2651
     2.1872

          k =-0.3333 0.3208 0.0000 (  6202 PWs)   bands (ev):

   -12.0959  -9.7381  -6.8263  -6.0512  -5.2045  -0.3139   0.7193   1.3197
     2.3433

          k = 0.6111-0.2245 0.0000 (  6198 PWs)   bands (ev):

   -11.7623 -10.0780  -6.8809  -6.0953  -5.3087  -0.3236   0.4680   1.3556
     2.3783

          k = 0.5556-0.1925 0.0000 (  6207 PWs)   bands (ev):

   -11.6031 -10.2444  -6.8908  -6.1116  -5.3451  -0.3168   0.3715   1.3690
     2.3737

          k = 0.5000-0.1604 0.0000 (  6200 PWs)   bands (ev):

   -11.7631 -10.0767  -6.8812  -6.0942  -5.3103  -0.3228   0.4673   1.3558
     2.3777

          k = 0.4444-0.1283 0.0000 (  6202 PWs)   bands (ev):

   -12.0969  -9.7362  -6.8263  -6.0495  -5.2077  -0.3126   0.7187   1.3196
     2.3419

          k = 0.3889-0.0962 0.0000 (  6182 PWs)   bands (ev):

   -12.4569  -9.4124  -6.6652  -5.9917  -5.0421  -0.2506   1.0480   1.2633
     2.1853

          k = 0.3333-0.0642 0.0000 (  6175 PWs)   bands (ev):

   -12.7896  -9.1964  -6.3484  -5.9357  -4.8136  -0.1280   1.0596   1.4221
     1.9188

          k = 0.2778-0.0321 0.0000 (  6157 PWs)   bands (ev):

   -13.0745  -9.0983  -5.9440  -5.8357  -4.5215   0.0383   0.7349   1.4336
     1.6877

          k = 0.2222-0.0000 0.0000 (  6145 PWs)   bands (ev):

   -13.3022  -9.0777  -5.8872  -5.3272  -4.1801   0.0836   0.4057   1.1907
     1.5990

          k = 0.0000 0.1925 0.0000 (  6158 PWs)   bands (ev):

   -13.4007  -9.0840  -5.8827  -5.0836  -3.8649  -0.5060   0.7823   1.3289
     1.5491

          k =-0.0556 0.2245 0.0000 (  6162 PWs)   bands (ev):

   -13.2689  -9.0798  -5.8996  -5.4655  -4.1098  -0.3862   0.8282   1.3363
     1.6503

          k =-0.1111 0.2566 0.0000 (  6157 PWs)   bands (ev):

   -13.0737  -9.0996  -5.9477  -5.8408  -4.5109   0.0421   0.7359   1.4312
     1.6879

          k =-0.1667 0.2887 0.0000 (  6189 PWs)   bands (ev):

   -12.8189  -9.1770  -6.2248  -5.9728  -4.9185   0.5352   0.6269   1.6567
     1.6996

          k =-0.2222 0.3208 0.0000 (  6182 PWs)   bands (ev):

   -12.5111  -9.3489  -6.5013  -6.0482  -5.2483   0.4456   0.9741   1.5391
     1.9583

          k =-0.2778 0.3528 0.0000 (  6175 PWs)   bands (ev):

   -12.1628  -9.6270  -6.6825  -6.1158  -5.4887   0.3652   1.1477   1.2071
     2.0588

          k = 0.6667-0.1925 0.0000 (  6186 PWs)   bands (ev):

   -11.8040  -9.9686  -6.7789  -6.1475  -5.6593   0.3532   0.8490   1.2965
     2.0321

          k = 0.6111-0.1604 0.0000 (  6182 PWs)   bands (ev):

   -11.5233 -10.2520  -6.8190  -6.1436  -5.7613   0.4195   0.5993   1.3868
     1.9602

          k = 0.5556-0.1283 0.0000 (  6182 PWs)   bands (ev):

   -11.5242 -10.2506  -6.8193  -6.1423  -5.7629   0.4218   0.5970   1.3868
     1.9601

          k = 0.5000-0.0962 0.0000 (  6186 PWs)   bands (ev):

   -11.8056  -9.9658  -6.7792  -6.1448  -5.6632   0.3555   0.8467   1.2964
     2.0317

          k = 0.4444-0.0642 0.0000 (  6175 PWs)   bands (ev):

   -12.1644  -9.6239  -6.6816  -6.1131  -5.4944   0.3673   1.1511   1.2015
     2.0577

          k = 0.3889-0.0321 0.0000 (  6182 PWs)   bands (ev):

   -12.5124  -9.3461  -6.4980  -6.0462  -5.2559   0.4477   0.9729   1.5379
     1.9575

          k = 0.3333 0.0000 0.0000 (  6189 PWs)   bands (ev):

   -12.8200  -9.1750  -6.2186  -5.9716  -4.9280   0.5401   0.6196   1.6598
     1.6983

          k = 0.0000 0.2566 0.0000 (  6178 PWs)   bands (ev):

   -13.1712  -9.0890  -5.9574  -5.7087  -4.1148  -0.6988   1.0191   1.4409
     2.1311

          k =-0.0556 0.2887 0.0000 (  6142 PWs)   bands (ev):

   -13.0100  -9.1207  -6.1392  -5.8534  -4.3709  -0.5809   1.0841   1.4103
     1.9718

          k =-0.1111 0.3208 0.0000 (  6175 PWs)   bands (ev):

   -12.7882  -9.1990  -6.3544  -5.9371  -4.8040  -0.1231   1.0590   1.4214
     1.9186

          k =-0.1667 0.3528 0.0000 (  6180 PWs)   bands (ev):

   -12.5106  -9.3498  -6.5030  -6.0476  -5.2470   0.4507   0.9719   1.5400
     1.9568

          k =-0.2222 0.3849 0.0000 (  6201 PWs)   bands (ev):

   -12.1854  -9.5870  -6.5756  -6.1993  -5.5907   0.7827   0.9264   1.8963
     1.9515

          k = 0.7222-0.1604 0.0000 (  6194 PWs)   bands (ev):

   -11.8289  -9.8976  -6.6255  -6.3118  -5.8262   0.6922   1.1121   1.6979
     1.9208

          k = 0.6667-0.1283 0.0000 (  6198 PWs)   bands (ev):

   -11.4838 -10.2258  -6.7040  -6.2836  -6.0058   0.6026   1.2855   1.5370
     1.7697

          k = 0.6111-0.0962 0.0000 (  6199 PWs)   bands (ev):

   -11.3032 -10.4027  -6.7426  -6.1864  -6.1394   0.5696   1.3607   1.5783
     1.5975

          k = 0.5556-0.0642 0.0000 (  6198 PWs)   bands (ev):

   -11.4862 -10.2223  -6.7047  -6.2807  -6.0093   0.6036   1.2867   1.5307
     1.7733

          k = 0.5000-0.0321 0.0000 (  6194 PWs)   bands (ev):

   -11.8314  -9.8931  -6.6251  -6.3096  -5.8310   0.6942   1.1117   1.6921
     1.9228

          k = 0.4444 0.0000 0.0000 (  6201 PWs)   bands (ev):

   -12.1876  -9.5826  -6.5725  -6.1981  -5.5977   0.7855   0.9243   1.8900
     1.9470

          k = 0.0000 0.3208 0.0000 (  6174 PWs)   bands (ev):

   -12.8838  -9.1714  -6.3763  -5.8781  -4.3438  -0.8917   1.1682   1.2918
     2.2538

          k =-0.0556 0.3528 0.0000 (  6180 PWs)   bands (ev):

   -12.6974  -9.2660  -6.5649  -5.9213  -4.5942  -0.7467   1.0904   1.2893
     2.2585

          k =-0.1111 0.3849 0.0000 (  6182 PWs)   bands (ev):

   -12.4547  -9.4170  -6.6687  -5.9937  -5.0338  -0.2456   1.0483   1.2622
     2.1863

          k =-0.1667 0.4170 0.0000 (  6175 PWs)   bands (ev):

   -12.1615  -9.6296  -6.6842  -6.1151  -5.4866   0.3703   1.1498   1.2048
     2.0593

          k = 0.7778-0.1283 0.0000 (  6194 PWs)   bands (ev):

   -11.8279  -9.8994  -6.6269  -6.3102  -5.8257   0.6941   1.1107   1.7006
     1.9229

          k = 0.7222-0.0962 0.0000 (  6183 PWs)   bands (ev):

   -11.4719 -10.2114  -6.5315  -6.5162  -6.0426   0.7098   1.1686   1.6516
     2.5542

          k = 0.6667-0.0642 0.0000 (  6178 PWs)   bands (ev):

   -11.1506 -10.5102  -6.6633  -6.3878  -6.2051   0.6685   1.3089   1.4753
     2.5969

          k = 0.6111-0.0321 0.0000 (  6178 PWs)   bands (ev):

   -11.1537 -10.5063  -6.6637  -6.3869  -6.2064   0.6687   1.3091   1.4748
     2.5964

          k = 0.5556 0.0000 0.0000 (  6183 PWs)   bands (ev):

   -11.4760 -10.2053  -6.5315  -6.5157  -6.0453   0.7103   1.1690   1.6500
     2.5449

          k = 0.0000 0.3849 0.0000 (  6192 PWs)   bands (ev):

   -12.5486  -9.3811  -6.7308  -5.9403  -4.5339  -1.0379   0.8935   1.3325
     2.9396

          k =-0.0556 0.4170 0.0000 (  6187 PWs)   bands (ev):

   -12.3452  -9.5428  -6.8176  -5.9845  -4.7682  -0.8583   0.7638   1.3388
     2.5426

          k =-0.1111 0.4491 0.0000 (  6202 PWs)   bands (ev):

   -12.0932  -9.7432  -6.8275  -6.0521  -5.2005  -0.3074   0.7206   1.3172
     2.3432

          k = 0.8333-0.0962 0.0000 (  6186 PWs)   bands (ev):

   -11.8009  -9.9738  -6.7798  -6.1476  -5.6565   0.3581   0.8516   1.2939
     2.0323

          k = 0.7778-0.0642 0.0000 (  6198 PWs)   bands (ev):

   -11.4804 -10.2309  -6.7050  -6.2818  -6.0052   0.6042   1.2849   1.5394
     1.7719

          k = 0.7222-0.0321 0.0000 (  6178 PWs)   bands (ev):

   -11.1467 -10.5149  -6.6641  -6.3854  -6.2059   0.6690   1.3087   1.4751
     2.6030

          k = 0.6667-0.0000 0.0000 (  6183 PWs)   bands (ev):

   -10.8258 -10.8165  -6.6795  -6.3347  -6.3328   0.6919   1.3559   1.3568
     3.9089

          k = 0.0000 0.4491 0.0000 (  6184 PWs)   bands (ev):

   -12.1866  -9.7104  -6.8986  -6.0082  -4.6752  -1.1288   0.5822   1.3536
     3.0302

          k =-0.0556 0.4811 0.0000 (  6188 PWs)   bands (ev):

   -11.9866  -9.8981  -6.9138  -6.0490  -4.8874  -0.9169   0.4883   1.3480
     2.7529

          k = 0.8889-0.0642 0.0000 (  6200 PWs)   bands (ev):

   -11.7572 -10.0863  -6.8809  -6.0973  -5.3041  -0.3172   0.4694   1.3526
     2.3786

          k = 0.8333-0.0321 0.0000 (  6182 PWs)   bands (ev):

   -11.5170 -10.2611  -6.8189  -6.1454  -5.7571   0.4236   0.6030   1.3837
     1.9608

          k = 0.7778 0.0000 0.0000 (  6199 PWs)   bands (ev):

   -11.2958 -10.4124  -6.7428  -6.1885  -6.1349   0.5706   1.3620   1.5810
     1.5979

          k = 0.0000 0.5132 0.0000 (  6182 PWs)   bands (ev):

   -11.8540 -10.0574  -6.9436  -6.0687  -4.7618  -1.1728   0.3706   1.3418
     3.0383

          k = 0.9444-0.0321 0.0000 (  6182 PWs)   bands (ev):

   -11.7150 -10.1856  -6.9319  -6.0927  -4.9480  -0.9378   0.3356   1.3432
     2.8020

          k = 0.8889 0.0000 0.0000 (  6207 PWs)   bands (ev):

   -11.5956 -10.2555  -6.8902  -6.1145  -5.3398  -0.3106   0.3733   1.3656
     2.3743

          k = 0.0000-0.5774 0.0000 (  6174 PWs)   bands (ev):

   -11.6972 -10.2252  -6.9469  -6.0941  -4.7910  -1.1850   0.2960   1.3335
     3.0348

     the Fermi energy is    -2.6272 ev

!    total energy              =     -25.16172664 Ry
     estimated scf accuracy    <       0.00000024 Ry
     smearing contrib. (-TS)   =       0.00000000 Ry
     internal energy E=F+TS    =     -25.16172664 Ry

     The total energy is F=E-TS. E is the sum of the following terms:
     one-electron contribution =    -110.89006974 Ry
     hartree contribution      =      56.76107346 Ry
     xc contribution           =     -13.64704255 Ry
     ewald contribution        =      42.61459434 Ry
     one-center paw contrib.   =      -0.00028215 Ry

     convergence has been achieved in   6 iterations

     Writing output data file /home/jesus/Documentos/Nanociencia_DFT/silicano.save/
 
     init_run     :      4.55s CPU      4.78s WALL (       1 calls)
     electrons    :     74.57s CPU     76.27s WALL (       1 calls)

     Called by init_run:
     wfcinit      :      3.38s CPU      3.42s WALL (       1 calls)
     potinit      :      0.29s CPU      0.31s WALL (       1 calls)
     hinit0       :      0.55s CPU      0.58s WALL (       1 calls)

     Called by electrons:
     c_bands      :     61.96s CPU     62.16s WALL (       6 calls)
     sum_band     :     10.68s CPU     11.35s WALL (       6 calls)
     v_of_rho     :      0.70s CPU      0.75s WALL (       7 calls)
     newd         :      1.37s CPU      2.32s WALL (       7 calls)
     PAW_pot      :      0.01s CPU      0.01s WALL (       7 calls)
     mix_rho      :      0.08s CPU      0.08s WALL (       6 calls)

     Called by c_bands:
     init_us_2    :      2.46s CPU      2.46s WALL (    1183 calls)
     cegterg      :     51.56s CPU     51.74s WALL (     546 calls)

     Called by *egterg:
     cdiaghg      :      0.42s CPU      0.42s WALL (    2787 calls)
     h_psi        :     47.04s CPU     47.21s WALL (    2878 calls)
     s_psi        :      2.00s CPU      2.01s WALL (    2878 calls)
     g_psi        :      0.21s CPU      0.21s WALL (    2241 calls)

     Called by h_psi:
     h_psi:calbec :      2.16s CPU      2.17s WALL (    2878 calls)
     vloc_psi     :     42.59s CPU     42.74s WALL (    2878 calls)
     add_vuspsi   :      2.04s CPU      2.05s WALL (    2878 calls)

     General routines
     calbec       :      2.72s CPU      2.73s WALL (    3424 calls)
     fft          :      0.26s CPU      0.28s WALL (      89 calls)
     ffts         :      0.02s CPU      0.02s WALL (      13 calls)
     fftw         :     43.61s CPU     43.76s WALL (   36374 calls)
     interpolate  :      0.04s CPU      0.04s WALL (       7 calls)
 
     Parallel routines
 
     PWSCF        :   1m19.97s CPU   1m22.09s WALL

 
   This run was terminated on:  15:15:26  31Mar2021            

=------------------------------------------------------------------------------=
   JOB DONE.
=------------------------------------------------------------------------------=
