
     Program PWSCF v.6.6 starts on 31Mar2021 at 15: 5:52 

     This program is part of the open-source Quantum ESPRESSO suite
     for quantum simulation of materials; please cite
         "P. Giannozzi et al., J. Phys.:Condens. Matter 21 395502 (2009);
         "P. Giannozzi et al., J. Phys.:Condens. Matter 29 465901 (2017);
          URL http://www.quantum-espresso.org", 
     in publications or presentations arising from this work. More details at
     http://www.quantum-espresso.org/quote

     Parallel version (MPI), running on     1 processors

     MPI processes distributed on     1 nodes
     Fft bands division:     nmany     =       1
     Waiting for input...
     Reading input from standard input
Warning: card &CELL ignored
Warning: card   CELL_DYNAMICS='BFGS', ignored
Warning: card   CELL_DOFREE='ALL', ignored
Warning: card / ignored

     Current dimensions of program PWSCF are:
     Max number of different atomic species (ntypx) = 10
     Max number of k-points (npk) =  40000
     Max angular momentum in pseudopotentials (lmaxx) =  3
     file H.pbe-kjpaw_psl.1.0.0.UPF: wavefunction(s)  1S renormalized

     Subspace diagonalization in iterative solution of the eigenvalue problem:
     a serial algorithm will be used

     Message from routine setup:
     using ibrav=0 with symmetry is DISCOURAGED, use correct ibrav instead
 
     G-vector sticks info
     --------------------
     sticks:   dense  smooth     PW     G-vecs:    dense   smooth      PW
     Sum         769     511    163                90535    49301    8737
 


     bravais-lattice index     =            0
     lattice parameter (alat)  =       7.3457  a.u.
     unit-cell volume          =    1765.6965 (a.u.)^3
     number of atoms/cell      =            4
     number of atomic types    =            2
     number of electrons       =        10.00
     number of Kohn-Sham states=            9
     kinetic-energy cutoff     =      35.0000  Ry
     charge density cutoff     =     210.0000  Ry
     convergence threshold     =      1.0E-06
     mixing beta               =       0.7000
     number of iterations used =            8  plain     mixing
     Exchange-correlation= SLA PW PBX PBC
                           (   1   4   3   4   0   0   0)

     celldm(1)=   7.345687  celldm(2)=   0.000000  celldm(3)=   0.000000
     celldm(4)=   0.000000  celldm(5)=   0.000000  celldm(6)=   0.000000

     crystal axes: (cart. coord. in units of alat)
               a(1) = (   0.500000   0.866000   0.000000 )  
               a(2) = (  -0.500000   0.866000   0.000000 )  
               a(3) = (   0.000000   0.000000   5.144000 )  

     reciprocal axes: (cart. coord. in units 2 pi/alat)
               b(1) = (  1.000000  0.577367  0.000000 )  
               b(2) = ( -1.000000  0.577367  0.000000 )  
               b(3) = (  0.000000  0.000000  0.194401 )  


     PseudoPot. # 1 for Si read from file:
     /home/jesus/Nanociencia_DFT/pseudopotenciales/Si.pbe-n-rrkjus_psl.1.0.0.UPF
     MD5 check sum: fa25574f73a70a4139f2adfbefec430c
     Pseudo is Ultrasoft + core correction, Zval =  4.0
     Generated using "atomic" code by A. Dal Corso v.6.3
     Using radial grid of 1141 points,  6 beta functions with: 
                l(1) =   0
                l(2) =   0
                l(3) =   1
                l(4) =   1
                l(5) =   2
                l(6) =   2
     Q(r) pseudized with 0 coefficients 


     PseudoPot. # 2 for H  read from file:
     /home/jesus/Nanociencia_DFT/pseudopotenciales/H.pbe-kjpaw_psl.1.0.0.UPF
     MD5 check sum: d81a744832360e4a8af0b0b5b123bc2a
     Pseudo is Projector augmented-wave, Zval =  1.0
     Generated using "atomic" code by A. Dal Corso v.6.3MaX
     Shape of augmentation charge: PSQ
     Using radial grid of  929 points,  2 beta functions with: 
                l(1) =   0
                l(2) =   0
     Q(r) pseudized with 0 coefficients 


     atomic species   valence    mass     pseudopotential
        Si             4.00    28.08550     Si( 1.00)
        H              1.00     1.00800     H ( 1.00)

      2 Sym. Ops. (no inversion) found



   Cartesian axes

     site n.     atom                  positions (alat units)
         1           H   tau(   1) = (   0.0000000   0.0000000   0.0000000  )
         2           Si  tau(   2) = (   0.0000000   0.0000000   0.3858000  )
         3           Si  tau(   3) = (   0.0000000   0.5767560   0.5709840  )
         4           H   tau(   4) = (   0.0000000   0.5767560   0.9567840  )

     number of k points=    13  Methfessel-Paxton smearing, width (Ry)=  0.0100
                       cart. coord. in units 2pi/alat
        k(    1) = (   0.0000000   0.0000000   0.0000000), wk =   0.0555556
        k(    2) = (  -0.1666667   0.0962279   0.0000000), wk =   0.2222222
        k(    3) = (  -0.3333333   0.1924557   0.0000000), wk =   0.2222222
        k(    4) = (   0.5000000  -0.2886836   0.0000000), wk =   0.1111111
        k(    5) = (   0.0000000   0.1924557   0.0000000), wk =   0.1111111
        k(    6) = (  -0.1666667   0.2886836   0.0000000), wk =   0.2222222
        k(    7) = (   0.6666667  -0.1924557   0.0000000), wk =   0.2222222
        k(    8) = (   0.5000000  -0.0962279   0.0000000), wk =   0.2222222
        k(    9) = (   0.3333333   0.0000000   0.0000000), wk =   0.1111111
        k(   10) = (   0.0000000   0.3849115   0.0000000), wk =   0.1111111
        k(   11) = (   0.8333333  -0.0962279   0.0000000), wk =   0.2222222
        k(   12) = (   0.6666667  -0.0000000   0.0000000), wk =   0.1111111
        k(   13) = (   0.0000000  -0.5773672   0.0000000), wk =   0.0555556

     Dense  grid:    90535 G-vectors     FFT dimensions: (  36,  36, 180)

     Smooth grid:    49301 G-vectors     FFT dimensions: (  27,  27, 144)

     Estimated max dynamical RAM per process >     333.79 MB

     Initial potential from superposition of free atoms

     starting charge    9.99886, renormalised to   10.00000

     negative rho (up, down):  1.007E-04 0.000E+00
     Starting wfcs are   10 randomized atomic wfcs
     Checking if some PAW data can be deallocated... 

     total cpu time spent up to now is        2.7 secs

     Self-consistent Calculation

     iteration #  1     ecut=    35.00 Ry     beta= 0.70
     Davidson diagonalization with overlap
     ethr =  1.00E-02,  avg # of iterations =  3.4

     negative rho (up, down):  8.313E-05 0.000E+00

     total cpu time spent up to now is        5.3 secs

     total energy              =     -25.14999070 Ry
     estimated scf accuracy    <       0.16642398 Ry

     iteration #  2     ecut=    35.00 Ry     beta= 0.70
     Davidson diagonalization with overlap
     ethr =  1.66E-03,  avg # of iterations =  1.3

     negative rho (up, down):  9.808E-05 0.000E+00

     total cpu time spent up to now is        7.4 secs

     total energy              =     -25.15995301 Ry
     estimated scf accuracy    <       0.00464669 Ry

     iteration #  3     ecut=    35.00 Ry     beta= 0.70
     Davidson diagonalization with overlap
     ethr =  4.65E-05,  avg # of iterations =  7.5

     negative rho (up, down):  1.000E-04 0.000E+00

     total cpu time spent up to now is       10.5 secs

     total energy              =     -25.16076068 Ry
     estimated scf accuracy    <       0.00025820 Ry

     iteration #  4     ecut=    35.00 Ry     beta= 0.70
     Davidson diagonalization with overlap
     ethr =  2.58E-06,  avg # of iterations =  7.4

     negative rho (up, down):  1.031E-04 0.000E+00

     total cpu time spent up to now is       13.2 secs

     total energy              =     -25.16080366 Ry
     estimated scf accuracy    <       0.00002365 Ry

     iteration #  5     ecut=    35.00 Ry     beta= 0.70
     Davidson diagonalization with overlap
     ethr =  2.37E-07,  avg # of iterations =  1.8

     negative rho (up, down):  1.031E-04 0.000E+00

     total cpu time spent up to now is       15.4 secs

     total energy              =     -25.16080668 Ry
     estimated scf accuracy    <       0.00000242 Ry

     iteration #  6     ecut=    35.00 Ry     beta= 0.70
     Davidson diagonalization with overlap
     ethr =  2.42E-08,  avg # of iterations =  1.9

     negative rho (up, down):  1.034E-04 0.000E+00

     total cpu time spent up to now is       17.6 secs

     End of self-consistent calculation

          k = 0.0000 0.0000 0.0000 (  6083 PWs)   bands (ev):

   -13.6994  -9.1407  -5.8739  -3.3828  -3.3668  -1.0410   0.5431   0.5600
     0.7952

          k =-0.1667 0.0962 0.0000 (  6162 PWs)   bands (ev):

   -13.3983  -9.0827  -5.8813  -5.0735  -3.8700  -0.5095   0.7828   1.3299
     1.5601

          k =-0.3333 0.1925 0.0000 (  6192 PWs)   bands (ev):

   -12.5478  -9.3755  -6.7257  -5.9379  -4.5368  -1.0420   0.8938   1.3354
     2.9426

          k = 0.5000-0.2887 0.0000 (  6174 PWs)   bands (ev):

   -11.7021 -10.2114  -6.9464  -6.0899  -4.7932  -1.1887   0.2952   1.3379
     3.0355

          k = 0.0000 0.1925 0.0000 (  6158 PWs)   bands (ev):

   -13.3980  -9.0830  -5.8818  -5.0806  -3.8614  -0.5039   0.7837   1.3294
     1.5512

          k =-0.1667 0.2887 0.0000 (  6189 PWs)   bands (ev):

   -12.8162  -9.1757  -6.2223  -5.9718  -4.9155   0.5369   0.6290   1.6576
     1.7011

          k = 0.6667-0.1925 0.0000 (  6186 PWs)   bands (ev):

   -11.8014  -9.9663  -6.7772  -6.1462  -5.6566   0.3550   0.8508   1.2975
     2.0331

          k = 0.5000-0.0962 0.0000 (  6186 PWs)   bands (ev):

   -11.8030  -9.9635  -6.7776  -6.1434  -5.6605   0.3573   0.8486   1.2974
     2.0326

          k = 0.3333 0.0000 0.0000 (  6189 PWs)   bands (ev):

   -12.8173  -9.1737  -6.2161  -5.9705  -4.9250   0.5418   0.6217   1.6607
     1.6996

          k = 0.0000 0.3849 0.0000 (  6192 PWs)   bands (ev):

   -12.5459  -9.3794  -6.7287  -5.9392  -4.5307  -1.0356   0.8944   1.3337
     2.9412

          k = 0.8333-0.0962 0.0000 (  6186 PWs)   bands (ev):

   -11.7983  -9.9716  -6.7781  -6.1463  -5.6538   0.3599   0.8534   1.2950
     2.0333

          k = 0.6667-0.0000 0.0000 (  6183 PWs)   bands (ev):

   -10.8233 -10.8140  -6.6766  -6.3334  -6.3315   0.6930   1.3569   1.3579
     3.9066

          k = 0.0000-0.5774 0.0000 (  6174 PWs)   bands (ev):

   -11.6945 -10.2229  -6.9455  -6.0930  -4.7878  -1.1824   0.2970   1.3344
     3.0360

     the Fermi energy is    -2.6276 ev

!    total energy              =     -25.16080697 Ry
     estimated scf accuracy    <       0.00000042 Ry
     smearing contrib. (-TS)   =       0.00000000 Ry
     internal energy E=F+TS    =     -25.16080697 Ry

     The total energy is F=E-TS. E is the sum of the following terms:
     one-electron contribution =    -110.89232533 Ry
     hartree contribution      =      56.76579970 Ry
     xc contribution           =     -13.64859354 Ry
     ewald contribution        =      42.61459434 Ry
     one-center paw contrib.   =      -0.00028215 Ry

     convergence has been achieved in   6 iterations

     Writing output data file /home/jesus/Documentos/Nanociencia_DFT/silicano.save/
 
     init_run     :      1.60s CPU      1.77s WALL (       1 calls)
     electrons    :     13.49s CPU     14.89s WALL (       1 calls)

     Called by init_run:
     wfcinit      :      0.49s CPU      0.49s WALL (       1 calls)
     potinit      :      0.28s CPU      0.30s WALL (       1 calls)
     hinit0       :      0.54s CPU      0.56s WALL (       1 calls)

     Called by electrons:
     c_bands      :      8.48s CPU      8.50s WALL (       6 calls)
     sum_band     :      2.98s CPU      3.60s WALL (       6 calls)
     v_of_rho     :      0.70s CPU      0.75s WALL (       7 calls)
     newd         :      1.52s CPU      2.34s WALL (       7 calls)
     PAW_pot      :      0.01s CPU      0.01s WALL (       7 calls)
     mix_rho      :      0.08s CPU      0.08s WALL (       6 calls)

     Called by c_bands:
     init_us_2    :      0.36s CPU      0.36s WALL (     169 calls)
     cegterg      :      6.98s CPU      7.00s WALL (      78 calls)

     Called by *egterg:
     cdiaghg      :      0.06s CPU      0.06s WALL (     380 calls)
     h_psi        :      6.39s CPU      6.41s WALL (     393 calls)
     s_psi        :      0.27s CPU      0.27s WALL (     393 calls)
     g_psi        :      0.03s CPU      0.03s WALL (     302 calls)

     Called by h_psi:
     h_psi:calbec :      0.30s CPU      0.30s WALL (     393 calls)
     vloc_psi     :      5.78s CPU      5.80s WALL (     393 calls)
     add_vuspsi   :      0.27s CPU      0.27s WALL (     393 calls)

     General routines
     calbec       :      0.38s CPU      0.38s WALL (     471 calls)
     fft          :      0.26s CPU      0.29s WALL (      89 calls)
     ffts         :      0.02s CPU      0.02s WALL (      13 calls)
     fftw         :      5.96s CPU      5.98s WALL (    5048 calls)
     interpolate  :      0.04s CPU      0.04s WALL (       7 calls)
 
     Parallel routines
 
     PWSCF        :     15.91s CPU     17.69s WALL

 
   This run was terminated on:  15: 6:10  31Mar2021            

=------------------------------------------------------------------------------=
   JOB DONE.
=------------------------------------------------------------------------------=
