
     Program PWSCF v.6.6 starts on 31Mar2021 at 15: 6:10 

     This program is part of the open-source Quantum ESPRESSO suite
     for quantum simulation of materials; please cite
         "P. Giannozzi et al., J. Phys.:Condens. Matter 21 395502 (2009);
         "P. Giannozzi et al., J. Phys.:Condens. Matter 29 465901 (2017);
          URL http://www.quantum-espresso.org", 
     in publications or presentations arising from this work. More details at
     http://www.quantum-espresso.org/quote

     Parallel version (MPI), running on     1 processors

     MPI processes distributed on     1 nodes
     Fft bands division:     nmany     =       1
     Waiting for input...
     Reading input from standard input
Warning: card &CELL ignored
Warning: card   CELL_DYNAMICS='BFGS', ignored
Warning: card   CELL_DOFREE='ALL', ignored
Warning: card / ignored

     Current dimensions of program PWSCF are:
     Max number of different atomic species (ntypx) = 10
     Max number of k-points (npk) =  40000
     Max angular momentum in pseudopotentials (lmaxx) =  3
     file H.pbe-kjpaw_psl.1.0.0.UPF: wavefunction(s)  1S renormalized

     Subspace diagonalization in iterative solution of the eigenvalue problem:
     a serial algorithm will be used

     Message from routine setup:
     using ibrav=0 with symmetry is DISCOURAGED, use correct ibrav instead
 
     G-vector sticks info
     --------------------
     sticks:   dense  smooth     PW     G-vecs:    dense   smooth      PW
     Sum         769     511    163                90535    49301    8797
 


     bravais-lattice index     =            0
     lattice parameter (alat)  =       7.3457  a.u.
     unit-cell volume          =    1765.6965 (a.u.)^3
     number of atoms/cell      =            4
     number of atomic types    =            2
     number of electrons       =        10.00
     number of Kohn-Sham states=            9
     kinetic-energy cutoff     =      35.0000  Ry
     charge density cutoff     =     210.0000  Ry
     convergence threshold     =      1.0E-06
     mixing beta               =       0.7000
     number of iterations used =            8  plain     mixing
     Exchange-correlation= SLA PW PBX PBC
                           (   1   4   3   4   0   0   0)

     celldm(1)=   7.345687  celldm(2)=   0.000000  celldm(3)=   0.000000
     celldm(4)=   0.000000  celldm(5)=   0.000000  celldm(6)=   0.000000

     crystal axes: (cart. coord. in units of alat)
               a(1) = (   0.500000   0.866000   0.000000 )  
               a(2) = (  -0.500000   0.866000   0.000000 )  
               a(3) = (   0.000000   0.000000   5.144000 )  

     reciprocal axes: (cart. coord. in units 2 pi/alat)
               b(1) = (  1.000000  0.577367  0.000000 )  
               b(2) = ( -1.000000  0.577367  0.000000 )  
               b(3) = (  0.000000  0.000000  0.194401 )  


     PseudoPot. # 1 for Si read from file:
     /home/jesus/Nanociencia_DFT/pseudopotenciales/Si.pbe-n-rrkjus_psl.1.0.0.UPF
     MD5 check sum: fa25574f73a70a4139f2adfbefec430c
     Pseudo is Ultrasoft + core correction, Zval =  4.0
     Generated using "atomic" code by A. Dal Corso v.6.3
     Using radial grid of 1141 points,  6 beta functions with: 
                l(1) =   0
                l(2) =   0
                l(3) =   1
                l(4) =   1
                l(5) =   2
                l(6) =   2
     Q(r) pseudized with 0 coefficients 


     PseudoPot. # 2 for H  read from file:
     /home/jesus/Nanociencia_DFT/pseudopotenciales/H.pbe-kjpaw_psl.1.0.0.UPF
     MD5 check sum: d81a744832360e4a8af0b0b5b123bc2a
     Pseudo is Projector augmented-wave, Zval =  1.0
     Generated using "atomic" code by A. Dal Corso v.6.3MaX
     Shape of augmentation charge: PSQ
     Using radial grid of  929 points,  2 beta functions with: 
                l(1) =   0
                l(2) =   0
     Q(r) pseudized with 0 coefficients 


     atomic species   valence    mass     pseudopotential
        Si             4.00    28.08550     Si( 1.00)
        H              1.00     1.00800     H ( 1.00)

      2 Sym. Ops. (no inversion) found



   Cartesian axes

     site n.     atom                  positions (alat units)
         1           H   tau(   1) = (   0.0000000   0.0000000   0.0000000  )
         2           Si  tau(   2) = (   0.0000000   0.0000000   0.3858000  )
         3           Si  tau(   3) = (   0.0000000   0.5767560   0.5709840  )
         4           H   tau(   4) = (   0.0000000   0.5767560   0.9567840  )

     number of k points=    16  Methfessel-Paxton smearing, width (Ry)=  0.0100
                       cart. coord. in units 2pi/alat
        k(    1) = (   0.0000000   0.0000000   0.0000000), wk =   0.0408163
        k(    2) = (  -0.1428571   0.0824810   0.0000000), wk =   0.1632653
        k(    3) = (  -0.2857143   0.1649621   0.0000000), wk =   0.1632653
        k(    4) = (  -0.4285714   0.2474431   0.0000000), wk =   0.1632653
        k(    5) = (   0.0000000   0.1649621   0.0000000), wk =   0.0816327
        k(    6) = (  -0.1428571   0.2474431   0.0000000), wk =   0.1632653
        k(    7) = (  -0.2857143   0.3299241   0.0000000), wk =   0.1632653
        k(    8) = (   0.5714286  -0.1649621   0.0000000), wk =   0.1632653
        k(    9) = (   0.4285714  -0.0824810   0.0000000), wk =   0.1632653
        k(   10) = (   0.2857143  -0.0000000   0.0000000), wk =   0.0816327
        k(   11) = (   0.0000000   0.3299241   0.0000000), wk =   0.0816327
        k(   12) = (  -0.1428571   0.4124051   0.0000000), wk =   0.1632653
        k(   13) = (   0.7142857  -0.0824810   0.0000000), wk =   0.1632653
        k(   14) = (   0.5714286   0.0000000   0.0000000), wk =   0.0816327
        k(   15) = (   0.0000000   0.4948862   0.0000000), wk =   0.0816327
        k(   16) = (   0.8571429  -0.0000000   0.0000000), wk =   0.0816327

     Dense  grid:    90535 G-vectors     FFT dimensions: (  36,  36, 180)

     Smooth grid:    49301 G-vectors     FFT dimensions: (  27,  27, 144)

     Estimated max dynamical RAM per process >     336.33 MB

     Initial potential from superposition of free atoms

     starting charge    9.99886, renormalised to   10.00000

     negative rho (up, down):  1.007E-04 0.000E+00
     Starting wfcs are   10 randomized atomic wfcs
     Checking if some PAW data can be deallocated... 

     total cpu time spent up to now is        2.7 secs

     Self-consistent Calculation

     iteration #  1     ecut=    35.00 Ry     beta= 0.70
     Davidson diagonalization with overlap
     ethr =  1.00E-02,  avg # of iterations =  3.7

     negative rho (up, down):  8.243E-05 0.000E+00

     total cpu time spent up to now is        5.8 secs

     total energy              =     -25.15058800 Ry
     estimated scf accuracy    <       0.16599641 Ry

     iteration #  2     ecut=    35.00 Ry     beta= 0.70
     Davidson diagonalization with overlap
     ethr =  1.66E-03,  avg # of iterations =  1.3

     negative rho (up, down):  9.814E-05 0.000E+00

     total cpu time spent up to now is        8.2 secs

     total energy              =     -25.16051120 Ry
     estimated scf accuracy    <       0.00465577 Ry

     iteration #  3     ecut=    35.00 Ry     beta= 0.70
     Davidson diagonalization with overlap
     c_bands:  1 eigenvalues not converged
     ethr =  4.66E-05,  avg # of iterations =  9.4

     negative rho (up, down):  1.001E-04 0.000E+00

     total cpu time spent up to now is       12.0 secs

     total energy              =     -25.16128655 Ry
     estimated scf accuracy    <       0.00026264 Ry

     iteration #  4     ecut=    35.00 Ry     beta= 0.70
     Davidson diagonalization with overlap
     c_bands:  1 eigenvalues not converged
     ethr =  2.63E-06,  avg # of iterations =  5.9

     negative rho (up, down):  1.032E-04 0.000E+00

     total cpu time spent up to now is       15.1 secs

     total energy              =     -25.16132887 Ry
     estimated scf accuracy    <       0.00002365 Ry

     iteration #  5     ecut=    35.00 Ry     beta= 0.70
     Davidson diagonalization with overlap
     ethr =  2.36E-07,  avg # of iterations =  1.6

     negative rho (up, down):  1.031E-04 0.000E+00

     total cpu time spent up to now is       17.6 secs

     total energy              =     -25.16133173 Ry
     estimated scf accuracy    <       0.00000168 Ry

     iteration #  6     ecut=    35.00 Ry     beta= 0.70
     Davidson diagonalization with overlap
     ethr =  1.68E-08,  avg # of iterations =  2.0

     negative rho (up, down):  1.034E-04 0.000E+00

     total cpu time spent up to now is       20.1 secs

     End of self-consistent calculation

          k = 0.0000 0.0000 0.0000 (  6083 PWs)   bands (ev):

   -13.7017  -9.1422  -5.8753  -3.3852  -3.3699  -1.0427   0.5415   0.5581
     0.7947

          k =-0.1429 0.0825 0.0000 (  6144 PWs)   bands (ev):

   -13.4798  -9.0933  -5.8768  -4.7653  -3.7665  -0.4604   0.6700   1.2009
     1.3236

          k =-0.2857 0.1650 0.0000 (  6174 PWs)   bands (ev):

   -12.8394  -9.1910  -6.4334  -5.8867  -4.3793  -0.9219   1.1535   1.2837
     2.7056

          k =-0.4286 0.2474 0.0000 (  6174 PWs)   bands (ev):

   -11.9444  -9.9576  -6.9383  -6.0515  -4.7475  -1.1697   0.4164   1.3489
     3.0387

          k = 0.0000 0.1650 0.0000 (  6144 PWs)   bands (ev):

   -13.4796  -9.0935  -5.8771  -4.7727  -3.7576  -0.4561   0.6721   1.2008
     1.3140

          k =-0.1429 0.2474 0.0000 (  6163 PWs)   bands (ev):

   -13.0464  -9.1046  -5.9237  -5.9011  -4.5923   0.3480   0.5118   1.4445
     1.6834

          k =-0.2857 0.3299 0.0000 (  6184 PWs)   bands (ev):

   -12.2424  -9.5733  -6.7092  -6.0636  -5.3309   0.1009   1.0375   1.2326
     2.1364

          k = 0.5714-0.1650 0.0000 (  6191 PWs)   bands (ev):

   -11.5367 -10.2706  -6.8553  -6.1267  -5.5937   0.1509   0.4194   1.3866
     2.1231

          k = 0.4286-0.0825 0.0000 (  6186 PWs)   bands (ev):

   -12.2436  -9.5708  -6.7085  -6.0614  -5.3357   0.1026   1.0381   1.2307
     2.1350

          k = 0.2857-0.0000 0.0000 (  6163 PWs)   bands (ev):

   -13.0471  -9.1034  -5.9227  -5.8942  -4.6019   0.3530   0.5033   1.4472
     1.6826

          k = 0.0000 0.3299 0.0000 (  6174 PWs)   bands (ev):

   -12.8382  -9.1932  -6.4377  -5.8876  -4.3730  -0.9157   1.1539   1.2820
     2.2817

          k =-0.1429 0.4124 0.0000 (  6182 PWs)   bands (ev):

   -12.2410  -9.5761  -6.7108  -6.0636  -5.3282   0.1067   1.0398   1.2296
     2.1363

          k = 0.7143-0.0825 0.0000 (  6181 PWs)   bands (ev):

   -11.3704 -10.3033  -6.5704  -6.4925  -6.0935   0.6994   1.2004   1.6000
     2.6779

          k = 0.5714 0.0000 0.0000 (  6181 PWs)   bands (ev):

   -11.3746 -10.2973  -6.5705  -6.4923  -6.0954   0.6996   1.2006   1.5991
     2.6688

          k = 0.0000 0.4949 0.0000 (  6174 PWs)   bands (ev):

   -11.9396  -9.9658  -6.9381  -6.0542  -4.7423  -1.1638   0.4181   1.3459
     3.0387

          k = 0.8571-0.0000 0.0000 (  6193 PWs)   bands (ev):

   -11.5296 -10.2811  -6.8546  -6.1295  -5.5888   0.1569   0.4211   1.3833
     2.1237

     the Fermi energy is    -3.2622 ev

!    total energy              =     -25.16133190 Ry
     estimated scf accuracy    <       0.00000041 Ry
     smearing contrib. (-TS)   =       0.00002395 Ry
     internal energy E=F+TS    =     -25.16135585 Ry

     The total energy is F=E-TS. E is the sum of the following terms:
     one-electron contribution =    -110.89153753 Ry
     hartree contribution      =      56.76369802 Ry
     xc contribution           =     -13.64782853 Ry
     ewald contribution        =      42.61459434 Ry
     one-center paw contrib.   =      -0.00028215 Ry

     convergence has been achieved in   6 iterations

     Writing output data file /home/jesus/Documentos/Nanociencia_DFT/silicano.save/
 
     init_run     :      1.71s CPU      1.92s WALL (       1 calls)
     electrons    :     15.96s CPU     17.43s WALL (       1 calls)

     Called by init_run:
     wfcinit      :      0.60s CPU      0.61s WALL (       1 calls)
     potinit      :      0.29s CPU      0.32s WALL (       1 calls)
     hinit0       :      0.54s CPU      0.57s WALL (       1 calls)

     Called by electrons:
     c_bands      :     10.66s CPU     10.72s WALL (       6 calls)
     sum_band     :      3.26s CPU      3.92s WALL (       6 calls)
     v_of_rho     :      0.71s CPU      0.75s WALL (       7 calls)
     newd         :      1.49s CPU      2.34s WALL (       7 calls)
     PAW_pot      :      0.01s CPU      0.01s WALL (       7 calls)
     mix_rho      :      0.08s CPU      0.08s WALL (       6 calls)

     Called by c_bands:
     init_us_2    :      0.43s CPU      0.44s WALL (     208 calls)
     cegterg      :      8.83s CPU      8.88s WALL (      96 calls)

     Called by *egterg:
     cdiaghg      :      0.07s CPU      0.07s WALL (     478 calls)
     h_psi        :      8.08s CPU      8.13s WALL (     494 calls)
     s_psi        :      0.34s CPU      0.34s WALL (     494 calls)
     g_psi        :      0.04s CPU      0.04s WALL (     382 calls)

     Called by h_psi:
     h_psi:calbec :      0.38s CPU      0.38s WALL (     494 calls)
     vloc_psi     :      7.31s CPU      7.35s WALL (     494 calls)
     add_vuspsi   :      0.35s CPU      0.35s WALL (     494 calls)

     General routines
     calbec       :      0.48s CPU      0.48s WALL (     590 calls)
     fft          :      0.26s CPU      0.29s WALL (      89 calls)
     ffts         :      0.02s CPU      0.02s WALL (      13 calls)
     fftw         :      7.51s CPU      7.56s WALL (    6266 calls)
     interpolate  :      0.04s CPU      0.04s WALL (       7 calls)
 
     Parallel routines
 
     PWSCF        :     18.46s CPU     20.25s WALL

 
   This run was terminated on:  15: 6:31  31Mar2021            

=------------------------------------------------------------------------------=
   JOB DONE.
=------------------------------------------------------------------------------=
