
     Program PWSCF v.6.6 starts on 31Mar2021 at 15: 5: 9 

     This program is part of the open-source Quantum ESPRESSO suite
     for quantum simulation of materials; please cite
         "P. Giannozzi et al., J. Phys.:Condens. Matter 21 395502 (2009);
         "P. Giannozzi et al., J. Phys.:Condens. Matter 29 465901 (2017);
          URL http://www.quantum-espresso.org", 
     in publications or presentations arising from this work. More details at
     http://www.quantum-espresso.org/quote

     Parallel version (MPI), running on     1 processors

     MPI processes distributed on     1 nodes
     Fft bands division:     nmany     =       1
     Waiting for input...
     Reading input from standard input
Warning: card &CELL ignored
Warning: card   CELL_DYNAMICS='BFGS', ignored
Warning: card   CELL_DOFREE='ALL', ignored
Warning: card / ignored

     Current dimensions of program PWSCF are:
     Max number of different atomic species (ntypx) = 10
     Max number of k-points (npk) =  40000
     Max angular momentum in pseudopotentials (lmaxx) =  3
     file H.pbe-kjpaw_psl.1.0.0.UPF: wavefunction(s)  1S renormalized

     Subspace diagonalization in iterative solution of the eigenvalue problem:
     a serial algorithm will be used

     Message from routine setup:
     using ibrav=0 with symmetry is DISCOURAGED, use correct ibrav instead
 
     G-vector sticks info
     --------------------
     sticks:   dense  smooth     PW     G-vecs:    dense   smooth      PW
     Sum         769     511    163                90535    49301    8161
 


     bravais-lattice index     =            0
     lattice parameter (alat)  =       7.3457  a.u.
     unit-cell volume          =    1765.6965 (a.u.)^3
     number of atoms/cell      =            4
     number of atomic types    =            2
     number of electrons       =        10.00
     number of Kohn-Sham states=            9
     kinetic-energy cutoff     =      35.0000  Ry
     charge density cutoff     =     210.0000  Ry
     convergence threshold     =      1.0E-06
     mixing beta               =       0.7000
     number of iterations used =            8  plain     mixing
     Exchange-correlation= SLA PW PBX PBC
                           (   1   4   3   4   0   0   0)

     celldm(1)=   7.345687  celldm(2)=   0.000000  celldm(3)=   0.000000
     celldm(4)=   0.000000  celldm(5)=   0.000000  celldm(6)=   0.000000

     crystal axes: (cart. coord. in units of alat)
               a(1) = (   0.500000   0.866000   0.000000 )  
               a(2) = (  -0.500000   0.866000   0.000000 )  
               a(3) = (   0.000000   0.000000   5.144000 )  

     reciprocal axes: (cart. coord. in units 2 pi/alat)
               b(1) = (  1.000000  0.577367  0.000000 )  
               b(2) = ( -1.000000  0.577367  0.000000 )  
               b(3) = (  0.000000  0.000000  0.194401 )  


     PseudoPot. # 1 for Si read from file:
     /home/jesus/Nanociencia_DFT/pseudopotenciales/Si.pbe-n-rrkjus_psl.1.0.0.UPF
     MD5 check sum: fa25574f73a70a4139f2adfbefec430c
     Pseudo is Ultrasoft + core correction, Zval =  4.0
     Generated using "atomic" code by A. Dal Corso v.6.3
     Using radial grid of 1141 points,  6 beta functions with: 
                l(1) =   0
                l(2) =   0
                l(3) =   1
                l(4) =   1
                l(5) =   2
                l(6) =   2
     Q(r) pseudized with 0 coefficients 


     PseudoPot. # 2 for H  read from file:
     /home/jesus/Nanociencia_DFT/pseudopotenciales/H.pbe-kjpaw_psl.1.0.0.UPF
     MD5 check sum: d81a744832360e4a8af0b0b5b123bc2a
     Pseudo is Projector augmented-wave, Zval =  1.0
     Generated using "atomic" code by A. Dal Corso v.6.3MaX
     Shape of augmentation charge: PSQ
     Using radial grid of  929 points,  2 beta functions with: 
                l(1) =   0
                l(2) =   0
     Q(r) pseudized with 0 coefficients 


     atomic species   valence    mass     pseudopotential
        Si             4.00    28.08550     Si( 1.00)
        H              1.00     1.00800     H ( 1.00)

      2 Sym. Ops. (no inversion) found



   Cartesian axes

     site n.     atom                  positions (alat units)
         1           H   tau(   1) = (   0.0000000   0.0000000   0.0000000  )
         2           Si  tau(   2) = (   0.0000000   0.0000000   0.3858000  )
         3           Si  tau(   3) = (   0.0000000   0.5767560   0.5709840  )
         4           H   tau(   4) = (   0.0000000   0.5767560   0.9567840  )

     number of k points=     4  Methfessel-Paxton smearing, width (Ry)=  0.0100
                       cart. coord. in units 2pi/alat
        k(    1) = (   0.0000000   0.0000000   0.0000000), wk =   0.2222222
        k(    2) = (  -0.3333333   0.1924557   0.0000000), wk =   0.8888889
        k(    3) = (   0.0000000   0.3849115   0.0000000), wk =   0.4444444
        k(    4) = (   0.6666667  -0.0000000   0.0000000), wk =   0.4444444

     Dense  grid:    90535 G-vectors     FFT dimensions: (  36,  36, 180)

     Smooth grid:    49301 G-vectors     FFT dimensions: (  27,  27, 144)

     Estimated max dynamical RAM per process >     326.16 MB

     Initial potential from superposition of free atoms

     starting charge    9.99886, renormalised to   10.00000

     negative rho (up, down):  1.007E-04 0.000E+00
     Starting wfcs are   10 randomized atomic wfcs
     Checking if some PAW data can be deallocated... 

     total cpu time spent up to now is        2.4 secs

     Self-consistent Calculation

     iteration #  1     ecut=    35.00 Ry     beta= 0.70
     Davidson diagonalization with overlap
     ethr =  1.00E-02,  avg # of iterations =  4.0

     negative rho (up, down):  8.114E-05 0.000E+00

     total cpu time spent up to now is        3.8 secs

     total energy              =     -25.12804482 Ry
     estimated scf accuracy    <       0.17507151 Ry

     iteration #  2     ecut=    35.00 Ry     beta= 0.70
     Davidson diagonalization with overlap
     ethr =  1.75E-03,  avg # of iterations =  1.2

     negative rho (up, down):  9.794E-05 0.000E+00

     total cpu time spent up to now is        5.0 secs

     total energy              =     -25.13795850 Ry
     estimated scf accuracy    <       0.00511557 Ry

     iteration #  3     ecut=    35.00 Ry     beta= 0.70
     Davidson diagonalization with overlap
     ethr =  5.12E-05,  avg # of iterations =  6.8

     negative rho (up, down):  1.015E-04 0.000E+00

     total cpu time spent up to now is        6.6 secs

     total energy              =     -25.13879667 Ry
     estimated scf accuracy    <       0.00025064 Ry

     iteration #  4     ecut=    35.00 Ry     beta= 0.70
     Davidson diagonalization with overlap
     ethr =  2.51E-06,  avg # of iterations =  3.2

     negative rho (up, down):  1.033E-04 0.000E+00

     total cpu time spent up to now is        7.9 secs

     total energy              =     -25.13883509 Ry
     estimated scf accuracy    <       0.00002287 Ry

     iteration #  5     ecut=    35.00 Ry     beta= 0.70
     Davidson diagonalization with overlap
     ethr =  2.29E-07,  avg # of iterations =  2.0

     negative rho (up, down):  1.032E-04 0.000E+00

     total cpu time spent up to now is        9.2 secs

     total energy              =     -25.13883857 Ry
     estimated scf accuracy    <       0.00000779 Ry

     iteration #  6     ecut=    35.00 Ry     beta= 0.70
     Davidson diagonalization with overlap
     ethr =  7.79E-08,  avg # of iterations =  1.0

     negative rho (up, down):  1.030E-04 0.000E+00

     total cpu time spent up to now is       10.4 secs

     End of self-consistent calculation

          k = 0.0000 0.0000 0.0000 (  6083 PWs)   bands (ev):

   -13.6464  -9.0987  -5.8366  -3.3210  -3.3048  -1.0010   0.5839   0.6011
     0.8072

          k =-0.3333 0.1925 0.0000 (  6192 PWs)   bands (ev):

   -12.4944  -9.3253  -6.6811  -5.8977  -4.4808  -0.9987   0.9208   1.3671
     2.9855

          k = 0.0000 0.3849 0.0000 (  6192 PWs)   bands (ev):

   -12.4923  -9.3294  -6.6842  -5.8990  -4.4747  -0.9921   0.9213   1.3654
     2.9837

          k = 0.6667-0.0000 0.0000 (  6183 PWs)   bands (ev):

   -10.7693 -10.7598  -6.6263  -6.2920  -6.2904   0.7262   1.3866   1.3874
     3.9578

     the Fermi energy is    -2.5757 ev

!    total energy              =     -25.13883978 Ry
     estimated scf accuracy    <       0.00000051 Ry
     smearing contrib. (-TS)   =       0.00000000 Ry
     internal energy E=F+TS    =     -25.13883978 Ry

     The total energy is F=E-TS. E is the sum of the following terms:
     one-electron contribution =    -110.89497341 Ry
     hartree contribution      =      56.80649480 Ry
     xc contribution           =     -13.66467341 Ry
     ewald contribution        =      42.61459434 Ry
     one-center paw contrib.   =      -0.00028211 Ry

     convergence has been achieved in   6 iterations

     Writing output data file /home/jesus/Documentos/Nanociencia_DFT/silicano.save/
 
     init_run     :      1.40s CPU      1.55s WALL (       1 calls)
     electrons    :      6.65s CPU      8.08s WALL (       1 calls)

     Called by init_run:
     wfcinit      :      0.15s CPU      0.17s WALL (       1 calls)
     potinit      :      0.33s CPU      0.35s WALL (       1 calls)
     hinit0       :      0.55s CPU      0.58s WALL (       1 calls)

     Called by electrons:
     c_bands      :      2.51s CPU      2.52s WALL (       6 calls)
     sum_band     :      2.00s CPU      2.70s WALL (       6 calls)
     v_of_rho     :      0.83s CPU      0.87s WALL (       7 calls)
     newd         :      1.62s CPU      2.41s WALL (       7 calls)
     PAW_pot      :      0.01s CPU      0.01s WALL (       7 calls)
     mix_rho      :      0.07s CPU      0.08s WALL (       6 calls)

     Called by c_bands:
     init_us_2    :      0.11s CPU      0.11s WALL (      52 calls)
     cegterg      :      2.05s CPU      2.05s WALL (      24 calls)

     Called by *egterg:
     cdiaghg      :      0.02s CPU      0.02s WALL (      97 calls)
     h_psi        :      1.91s CPU      1.91s WALL (     101 calls)
     s_psi        :      0.08s CPU      0.08s WALL (     101 calls)
     g_psi        :      0.01s CPU      0.01s WALL (      73 calls)

     Called by h_psi:
     h_psi:calbec :      0.08s CPU      0.08s WALL (     101 calls)
     vloc_psi     :      1.73s CPU      1.74s WALL (     101 calls)
     add_vuspsi   :      0.08s CPU      0.08s WALL (     101 calls)

     General routines
     calbec       :      0.11s CPU      0.11s WALL (     125 calls)
     fft          :      0.28s CPU      0.30s WALL (      89 calls)
     ffts         :      0.02s CPU      0.02s WALL (      13 calls)
     fftw         :      1.80s CPU      1.80s WALL (    1484 calls)
     interpolate  :      0.05s CPU      0.05s WALL (       7 calls)
 
     Parallel routines
 
     PWSCF        :      8.86s CPU     10.51s WALL

 
   This run was terminated on:  15: 5:20  31Mar2021            

=------------------------------------------------------------------------------=
   JOB DONE.
=------------------------------------------------------------------------------=
