
     Program PWSCF v.6.6 starts on 31Mar2021 at 15:11:52 

     This program is part of the open-source Quantum ESPRESSO suite
     for quantum simulation of materials; please cite
         "P. Giannozzi et al., J. Phys.:Condens. Matter 21 395502 (2009);
         "P. Giannozzi et al., J. Phys.:Condens. Matter 29 465901 (2017);
          URL http://www.quantum-espresso.org", 
     in publications or presentations arising from this work. More details at
     http://www.quantum-espresso.org/quote

     Parallel version (MPI), running on     1 processors

     MPI processes distributed on     1 nodes
     Fft bands division:     nmany     =       1
     Waiting for input...
     Reading input from standard input
Warning: card &CELL ignored
Warning: card   CELL_DYNAMICS='BFGS', ignored
Warning: card   CELL_DOFREE='ALL', ignored
Warning: card / ignored

     Current dimensions of program PWSCF are:
     Max number of different atomic species (ntypx) = 10
     Max number of k-points (npk) =  40000
     Max angular momentum in pseudopotentials (lmaxx) =  3
     file H.pbe-kjpaw_psl.1.0.0.UPF: wavefunction(s)  1S renormalized

     Subspace diagonalization in iterative solution of the eigenvalue problem:
     a serial algorithm will be used

     Message from routine setup:
     using ibrav=0 with symmetry is DISCOURAGED, use correct ibrav instead
 
     G-vector sticks info
     --------------------
     sticks:   dense  smooth     PW     G-vecs:    dense   smooth      PW
     Sum         769     511    163                90535    49301    9075
 


     bravais-lattice index     =            0
     lattice parameter (alat)  =       7.3457  a.u.
     unit-cell volume          =    1765.6965 (a.u.)^3
     number of atoms/cell      =            4
     number of atomic types    =            2
     number of electrons       =        10.00
     number of Kohn-Sham states=            9
     kinetic-energy cutoff     =      35.0000  Ry
     charge density cutoff     =     210.0000  Ry
     convergence threshold     =      1.0E-06
     mixing beta               =       0.7000
     number of iterations used =            8  plain     mixing
     Exchange-correlation= SLA PW PBX PBC
                           (   1   4   3   4   0   0   0)

     celldm(1)=   7.345687  celldm(2)=   0.000000  celldm(3)=   0.000000
     celldm(4)=   0.000000  celldm(5)=   0.000000  celldm(6)=   0.000000

     crystal axes: (cart. coord. in units of alat)
               a(1) = (   0.500000   0.866000   0.000000 )  
               a(2) = (  -0.500000   0.866000   0.000000 )  
               a(3) = (   0.000000   0.000000   5.144000 )  

     reciprocal axes: (cart. coord. in units 2 pi/alat)
               b(1) = (  1.000000  0.577367  0.000000 )  
               b(2) = ( -1.000000  0.577367  0.000000 )  
               b(3) = (  0.000000  0.000000  0.194401 )  


     PseudoPot. # 1 for Si read from file:
     /home/jesus/Nanociencia_DFT/pseudopotenciales/Si.pbe-n-rrkjus_psl.1.0.0.UPF
     MD5 check sum: fa25574f73a70a4139f2adfbefec430c
     Pseudo is Ultrasoft + core correction, Zval =  4.0
     Generated using "atomic" code by A. Dal Corso v.6.3
     Using radial grid of 1141 points,  6 beta functions with: 
                l(1) =   0
                l(2) =   0
                l(3) =   1
                l(4) =   1
                l(5) =   2
                l(6) =   2
     Q(r) pseudized with 0 coefficients 


     PseudoPot. # 2 for H  read from file:
     /home/jesus/Nanociencia_DFT/pseudopotenciales/H.pbe-kjpaw_psl.1.0.0.UPF
     MD5 check sum: d81a744832360e4a8af0b0b5b123bc2a
     Pseudo is Projector augmented-wave, Zval =  1.0
     Generated using "atomic" code by A. Dal Corso v.6.3MaX
     Shape of augmentation charge: PSQ
     Using radial grid of  929 points,  2 beta functions with: 
                l(1) =   0
                l(2) =   0
     Q(r) pseudized with 0 coefficients 


     atomic species   valence    mass     pseudopotential
        Si             4.00    28.08550     Si( 1.00)
        H              1.00     1.00800     H ( 1.00)

      2 Sym. Ops. (no inversion) found



   Cartesian axes

     site n.     atom                  positions (alat units)
         1           H   tau(   1) = (   0.0000000   0.0000000   0.0000000  )
         2           Si  tau(   2) = (   0.0000000   0.0000000   0.3858000  )
         3           Si  tau(   3) = (   0.0000000   0.5767560   0.5709840  )
         4           H   tau(   4) = (   0.0000000   0.5767560   0.9567840  )

     number of k points=    73  Methfessel-Paxton smearing, width (Ry)=  0.0100
                       cart. coord. in units 2pi/alat
        k(    1) = (   0.0000000   0.0000000   0.0000000), wk =   0.0078125
        k(    2) = (  -0.0625000   0.0360855   0.0000000), wk =   0.0312500
        k(    3) = (  -0.1250000   0.0721709   0.0000000), wk =   0.0312500
        k(    4) = (  -0.1875000   0.1082564   0.0000000), wk =   0.0312500
        k(    5) = (  -0.2500000   0.1443418   0.0000000), wk =   0.0312500
        k(    6) = (  -0.3125000   0.1804273   0.0000000), wk =   0.0312500
        k(    7) = (  -0.3750000   0.2165127   0.0000000), wk =   0.0312500
        k(    8) = (  -0.4375000   0.2525982   0.0000000), wk =   0.0312500
        k(    9) = (   0.5000000  -0.2886836   0.0000000), wk =   0.0156250
        k(   10) = (   0.0000000   0.0721709   0.0000000), wk =   0.0156250
        k(   11) = (  -0.0625000   0.1082564   0.0000000), wk =   0.0312500
        k(   12) = (  -0.1250000   0.1443418   0.0000000), wk =   0.0312500
        k(   13) = (  -0.1875000   0.1804273   0.0000000), wk =   0.0312500
        k(   14) = (  -0.2500000   0.2165127   0.0000000), wk =   0.0312500
        k(   15) = (  -0.3125000   0.2525982   0.0000000), wk =   0.0312500
        k(   16) = (  -0.3750000   0.2886836   0.0000000), wk =   0.0312500
        k(   17) = (   0.5625000  -0.2525982   0.0000000), wk =   0.0312500
        k(   18) = (   0.5000000  -0.2165127   0.0000000), wk =   0.0312500
        k(   19) = (   0.4375000  -0.1804273   0.0000000), wk =   0.0312500
        k(   20) = (   0.3750000  -0.1443418   0.0000000), wk =   0.0312500
        k(   21) = (   0.3125000  -0.1082564   0.0000000), wk =   0.0312500
        k(   22) = (   0.2500000  -0.0721709   0.0000000), wk =   0.0312500
        k(   23) = (   0.1875000  -0.0360855   0.0000000), wk =   0.0312500
        k(   24) = (   0.1250000   0.0000000   0.0000000), wk =   0.0156250
        k(   25) = (   0.0000000   0.1443418   0.0000000), wk =   0.0156250
        k(   26) = (  -0.0625000   0.1804273   0.0000000), wk =   0.0312500
        k(   27) = (  -0.1250000   0.2165127   0.0000000), wk =   0.0312500
        k(   28) = (  -0.1875000   0.2525982   0.0000000), wk =   0.0312500
        k(   29) = (  -0.2500000   0.2886836   0.0000000), wk =   0.0312500
        k(   30) = (  -0.3125000   0.3247691   0.0000000), wk =   0.0312500
        k(   31) = (   0.6250000  -0.2165127   0.0000000), wk =   0.0312500
        k(   32) = (   0.5625000  -0.1804273   0.0000000), wk =   0.0312500
        k(   33) = (   0.5000000  -0.1443418   0.0000000), wk =   0.0312500
        k(   34) = (   0.4375000  -0.1082564   0.0000000), wk =   0.0312500
        k(   35) = (   0.3750000  -0.0721709   0.0000000), wk =   0.0312500
        k(   36) = (   0.3125000  -0.0360855   0.0000000), wk =   0.0312500
        k(   37) = (   0.2500000   0.0000000   0.0000000), wk =   0.0156250
        k(   38) = (   0.0000000   0.2165127   0.0000000), wk =   0.0156250
        k(   39) = (  -0.0625000   0.2525982   0.0000000), wk =   0.0312500
        k(   40) = (  -0.1250000   0.2886836   0.0000000), wk =   0.0312500
        k(   41) = (  -0.1875000   0.3247691   0.0000000), wk =   0.0312500
        k(   42) = (  -0.2500000   0.3608545   0.0000000), wk =   0.0312500
        k(   43) = (   0.6875000  -0.1804273   0.0000000), wk =   0.0312500
        k(   44) = (   0.6250000  -0.1443418   0.0000000), wk =   0.0312500
        k(   45) = (   0.5625000  -0.1082564   0.0000000), wk =   0.0312500
        k(   46) = (   0.5000000  -0.0721709   0.0000000), wk =   0.0312500
        k(   47) = (   0.4375000  -0.0360855   0.0000000), wk =   0.0312500
        k(   48) = (   0.3750000   0.0000000   0.0000000), wk =   0.0156250
        k(   49) = (   0.0000000   0.2886836   0.0000000), wk =   0.0156250
        k(   50) = (  -0.0625000   0.3247691   0.0000000), wk =   0.0312500
        k(   51) = (  -0.1250000   0.3608545   0.0000000), wk =   0.0312500
        k(   52) = (  -0.1875000   0.3969400   0.0000000), wk =   0.0312500
        k(   53) = (   0.7500000  -0.1443418   0.0000000), wk =   0.0312500
        k(   54) = (   0.6875000  -0.1082564   0.0000000), wk =   0.0312500
        k(   55) = (   0.6250000  -0.0721709   0.0000000), wk =   0.0312500
        k(   56) = (   0.5625000  -0.0360855   0.0000000), wk =   0.0312500
        k(   57) = (   0.5000000   0.0000000   0.0000000), wk =   0.0156250
        k(   58) = (   0.0000000   0.3608545   0.0000000), wk =   0.0156250
        k(   59) = (  -0.0625000   0.3969400   0.0000000), wk =   0.0312500
        k(   60) = (  -0.1250000   0.4330254   0.0000000), wk =   0.0312500
        k(   61) = (   0.8125000  -0.1082564   0.0000000), wk =   0.0312500
        k(   62) = (   0.7500000  -0.0721709   0.0000000), wk =   0.0312500
        k(   63) = (   0.6875000  -0.0360855   0.0000000), wk =   0.0312500
        k(   64) = (   0.6250000   0.0000000   0.0000000), wk =   0.0156250
        k(   65) = (   0.0000000   0.4330254   0.0000000), wk =   0.0156250
        k(   66) = (  -0.0625000   0.4691109   0.0000000), wk =   0.0312500
        k(   67) = (   0.8750000  -0.0721709   0.0000000), wk =   0.0312500
        k(   68) = (   0.8125000  -0.0360855   0.0000000), wk =   0.0312500
        k(   69) = (   0.7500000   0.0000000   0.0000000), wk =   0.0156250
        k(   70) = (   0.0000000   0.5051963   0.0000000), wk =   0.0156250
        k(   71) = (   0.9375000  -0.0360855   0.0000000), wk =   0.0312500
        k(   72) = (   0.8750000   0.0000000   0.0000000), wk =   0.0156250
        k(   73) = (   0.0000000  -0.5773672   0.0000000), wk =   0.0078125

     Dense  grid:    90535 G-vectors     FFT dimensions: (  36,  36, 180)

     Smooth grid:    49301 G-vectors     FFT dimensions: (  27,  27, 144)

     Estimated max dynamical RAM per process >     384.66 MB

     Initial potential from superposition of free atoms

     starting charge    9.99886, renormalised to   10.00000

     negative rho (up, down):  1.007E-04 0.000E+00
     Starting wfcs are   10 randomized atomic wfcs
     Checking if some PAW data can be deallocated... 

     total cpu time spent up to now is        4.9 secs

     Self-consistent Calculation

     iteration #  1     ecut=    35.00 Ry     beta= 0.70
     Davidson diagonalization with overlap
     ethr =  1.00E-02,  avg # of iterations =  3.5

     negative rho (up, down):  8.294E-05 0.000E+00

     total cpu time spent up to now is       15.9 secs

     total energy              =     -25.15094902 Ry
     estimated scf accuracy    <       0.16563347 Ry

     iteration #  2     ecut=    35.00 Ry     beta= 0.70
     Davidson diagonalization with overlap
     ethr =  1.66E-03,  avg # of iterations =  1.4

     negative rho (up, down):  9.784E-05 0.000E+00

     total cpu time spent up to now is       23.8 secs

     total energy              =     -25.16087281 Ry
     estimated scf accuracy    <       0.00462228 Ry

     iteration #  3     ecut=    35.00 Ry     beta= 0.70
     Davidson diagonalization with overlap
     c_bands:  1 eigenvalues not converged
     ethr =  4.62E-05,  avg # of iterations =  8.8

     negative rho (up, down):  1.002E-04 0.000E+00

     total cpu time spent up to now is       37.9 secs

     total energy              =     -25.16166904 Ry
     estimated scf accuracy    <       0.00025764 Ry

     iteration #  4     ecut=    35.00 Ry     beta= 0.70
     Davidson diagonalization with overlap
     ethr =  2.58E-06,  avg # of iterations =  5.8

     negative rho (up, down):  1.033E-04 0.000E+00

     total cpu time spent up to now is       48.9 secs

     total energy              =     -25.16171232 Ry
     estimated scf accuracy    <       0.00002365 Ry

     iteration #  5     ecut=    35.00 Ry     beta= 0.70
     Davidson diagonalization with overlap
     ethr =  2.37E-07,  avg # of iterations =  1.9

     negative rho (up, down):  1.034E-04 0.000E+00

     total cpu time spent up to now is       57.2 secs

     End of self-consistent calculation

          k = 0.0000 0.0000 0.0000 (  6083 PWs)   bands (ev):

   -13.7062  -9.1469  -5.8794  -3.3902  -3.3746  -1.0459   0.5375   0.5543
     0.7936

          k =-0.0625 0.0361 0.0000 (  6118 PWs)   bands (ev):

   -13.6635  -9.1352  -5.8783  -3.7614  -3.4736  -0.7520   0.4973   0.7140
     0.8575

          k =-0.1250 0.0722 0.0000 (  6130 PWs)   bands (ev):

   -13.5360  -9.1065  -5.8788  -4.5335  -3.6947  -0.4582   0.5884   1.0948
     1.1563

          k =-0.1875 0.1083 0.0000 (  6162 PWs)   bands (ev):

   -13.3263  -9.0853  -5.8976  -5.3406  -3.9714  -0.5814   0.8733   1.4044
     1.7696

          k =-0.2500 0.1443 0.0000 (  6174 PWs)   bands (ev):

   -13.0393  -9.1211  -6.1411  -5.8394  -4.2441  -0.8092   1.1140   1.3842
     2.4078

          k =-0.3125 0.1804 0.0000 (  6184 PWs)   bands (ev):

   -12.6847  -9.2883  -6.6206  -5.9201  -4.4779  -0.9991   1.0170   1.3070
     2.8574

          k =-0.3750 0.2165 0.0000 (  6186 PWs)   bands (ev):

   -12.2848  -9.6202  -6.8741  -5.9937  -4.6543  -1.1203   0.6487   1.3525
     3.0158

          k =-0.4375 0.2526 0.0000 (  6182 PWs)   bands (ev):

   -11.8999 -10.0147  -6.9462  -6.0645  -4.7633  -1.1786   0.3852   1.3438
     3.0342

          k = 0.5000-0.2887 0.0000 (  6174 PWs)   bands (ev):

   -11.7091 -10.2185  -6.9522  -6.0957  -4.8001  -1.1941   0.2909   1.3339
     3.0300

          k = 0.0000 0.0722 0.0000 (  6118 PWs)   bands (ev):

   -13.6634  -9.1352  -5.8784  -3.7713  -3.4627  -0.7526   0.5082   0.7020
     0.8577

          k =-0.0625 0.1083 0.0000 (  6111 PWs)   bands (ev):

   -13.5783  -9.1149  -5.8779  -4.3037  -3.6481  -0.4071   0.4281   0.8875
     1.1759

          k =-0.1250 0.1443 0.0000 (  6138 PWs)   bands (ev):

   -13.4096  -9.0891  -5.8847  -5.0323  -3.9499  -0.2461   0.5697   1.1167
     1.5306

          k =-0.1875 0.1804 0.0000 (  6156 PWs)   bands (ev):

   -13.1608  -9.0937  -5.9435  -5.7196  -4.2659  -0.4285   0.9357   1.4190
     1.7537

          k =-0.2500 0.2165 0.0000 (  6165 PWs)   bands (ev):

   -12.8389  -9.1920  -6.3930  -5.9036  -4.5450  -0.6352   1.1507   1.3123
     2.1155

          k =-0.3125 0.2526 0.0000 (  6191 PWs)   bands (ev):

   -12.4580  -9.4472  -6.7554  -5.9709  -4.7652  -0.7825   0.8725   1.3228
     2.4255

          k =-0.3750 0.2887 0.0000 (  6191 PWs)   bands (ev):

   -12.0531  -9.8311  -6.9031  -6.0429  -4.9168  -0.8598   0.5353   1.3468
     2.6808

          k = 0.5625-0.2526 0.0000 (  6192 PWs)   bands (ev):

   -11.7304 -10.1701  -6.9327  -6.0945  -4.9946  -0.8855   0.3414   1.3455
     2.7477

          k = 0.5000-0.2165 0.0000 (  6192 PWs)   bands (ev):

   -11.7307 -10.1697  -6.9328  -6.0942  -4.9951  -0.8852   0.3413   1.3455
     2.7471

          k = 0.4375-0.1804 0.0000 (  6191 PWs)   bands (ev):

   -12.0537  -9.8302  -6.9032  -6.0421  -4.9183  -0.8591   0.5351   1.3468
     2.6795

          k = 0.3750-0.1443 0.0000 (  6191 PWs)   bands (ev):

   -12.4585  -9.4462  -6.7550  -5.9699  -4.7677  -0.7815   0.8727   1.3225
     2.4231

          k = 0.3125-0.1083 0.0000 (  6165 PWs)   bands (ev):

   -12.8393  -9.1912  -6.3917  -5.9025  -4.5488  -0.6340   1.1513   1.3118
     2.1121

          k = 0.2500-0.0722 0.0000 (  6158 PWs)   bands (ev):

   -13.1611  -9.0933  -5.9430  -5.7162  -4.2712  -0.4268   0.9331   1.4214
     1.7480

          k = 0.1875-0.0361 0.0000 (  6138 PWs)   bands (ev):

   -13.4098  -9.0889  -5.8845  -5.0263  -3.9577  -0.2428   0.5617   1.1178
     1.5290

          k = 0.1250 0.0000 0.0000 (  6111 PWs)   bands (ev):

   -13.5784  -9.1148  -5.8777  -4.2941  -3.6595  -0.4045   0.4171   0.8914
     1.1837

          k = 0.0000 0.1443 0.0000 (  6130 PWs)   bands (ev):

   -13.5359  -9.1067  -5.8790  -4.5415  -3.6852  -0.4551   0.5923   1.0951
     1.1461

          k =-0.0625 0.1804 0.0000 (  6138 PWs)   bands (ev):

   -13.4095  -9.0893  -5.8850  -5.0355  -3.9462  -0.2405   0.5663   1.1155
     1.5290

          k =-0.1250 0.2165 0.0000 (  6149 PWs)   bands (ev):

   -13.2015  -9.0874  -5.9044  -5.6029  -4.3544   0.1953   0.4442   1.2936
     1.6466

          k =-0.1875 0.2526 0.0000 (  6170 PWs)   bands (ev):

   -12.9168  -9.1485  -6.1524  -5.9337  -4.7442   0.1048   0.8523   1.5234
     1.7433

          k =-0.2500 0.2887 0.0000 (  6184 PWs)   bands (ev):

   -12.5648  -9.3350  -6.5600  -5.9939  -5.0510  -0.0522   1.1205   1.2927
     2.0559

          k =-0.3125 0.3248 0.0000 (  6190 PWs)   bands (ev):

   -12.1662  -9.6670  -6.7842  -6.0581  -5.2705  -0.1359   0.8434   1.2861
     2.2417

          k = 0.6250-0.2165 0.0000 (  6197 PWs)   bands (ev):

   -11.7778 -10.0546  -6.8650  -6.1057  -5.4083  -0.1427   0.5221   1.3480
     2.2740

          k = 0.5625-0.1804 0.0000 (  6199 PWs)   bands (ev):

   -11.5806 -10.2593  -6.8805  -6.1221  -5.4576  -0.1229   0.3881   1.3734
     2.2592

          k = 0.5000-0.1443 0.0000 (  6197 PWs)   bands (ev):

   -11.7788 -10.0530  -6.8653  -6.1043  -5.4104  -0.1416   0.5211   1.3481
     2.2734

          k = 0.4375-0.1083 0.0000 (  6190 PWs)   bands (ev):

   -12.1673  -9.6648  -6.7840  -6.0560  -5.2744  -0.1344   0.8427   1.2857
     2.2404

          k = 0.3750-0.0722 0.0000 (  6184 PWs)   bands (ev):

   -12.5657  -9.3330  -6.5581  -5.9919  -5.0568  -0.0505   1.1222   1.2898
     2.0540

          k = 0.3125-0.0361 0.0000 (  6170 PWs)   bands (ev):

   -12.9175  -9.1472  -6.1482  -5.9317  -4.7522   0.1070   0.8489   1.5261
     1.7400

          k = 0.2500 0.0000 0.0000 (  6149 PWs)   bands (ev):

   -13.2020  -9.0866  -5.9037  -5.5951  -4.3647   0.2001   0.4349   1.2957
     1.6460

          k = 0.0000 0.2165 0.0000 (  6162 PWs)   bands (ev):

   -13.3259  -9.0858  -5.8985  -5.3468  -3.9634  -0.5754   0.8736   1.4040
     1.7616

          k =-0.0625 0.2526 0.0000 (  6158 PWs)   bands (ev):

   -13.1604  -9.0943  -5.9457  -5.7218  -4.2613  -0.4216   0.9339   1.4192
     1.7474

          k =-0.1250 0.2887 0.0000 (  6170 PWs)   bands (ev):

   -12.9165  -9.1491  -6.1550  -5.9329  -4.7422   0.1111   0.8490   1.5244
     1.7393

          k =-0.1875 0.3248 0.0000 (  6179 PWs)   bands (ev):

   -12.6006  -9.2970  -6.4251  -6.0424  -5.1956   0.6690   0.7396   1.8374
     2.2495

          k =-0.2500 0.3609 0.0000 (  6199 PWs)   bands (ev):

   -12.2254  -9.5701  -6.6137  -6.1520  -5.5259   0.5755   1.0487   1.4940
     1.9979

          k = 0.6875-0.1804 0.0000 (  6186 PWs)   bands (ev):

   -11.8204  -9.9400  -6.7297  -6.2016  -5.7520   0.5075   1.1342   1.2370
     1.9505

          k = 0.6250-0.1443 0.0000 (  6189 PWs)   bands (ev):

   -11.4815 -10.2758  -6.7902  -6.1729  -5.9021   0.4958   0.9138   1.3847
     1.8277

          k = 0.5625-0.1083 0.0000 (  6189 PWs)   bands (ev):

   -11.4827 -10.2741  -6.7906  -6.1709  -5.9044   0.4969   0.9126   1.3844
     1.8281

          k = 0.5000-0.0722 0.0000 (  6186 PWs)   bands (ev):

   -11.8223  -9.9366  -6.7299  -6.1986  -5.7565   0.5097   1.1326   1.2357
     1.9506

          k = 0.4375-0.0361 0.0000 (  6199 PWs)   bands (ev):

   -12.2271  -9.5666  -6.6118  -6.1498  -5.5324   0.5779   1.0480   1.4913
     1.9970

          k = 0.3750 0.0000 0.0000 (  6179 PWs)   bands (ev):

   -12.6019  -9.2942  -6.4202  -6.0410  -5.2043   0.6734   0.7337   1.7215
     1.8410

          k = 0.0000 0.2887 0.0000 (  6174 PWs)   bands (ev):

   -13.0384  -9.1224  -6.1461  -5.8405  -4.2371  -0.8028   1.1140   1.3831
     2.1665

          k =-0.0625 0.3248 0.0000 (  6165 PWs)   bands (ev):

   -12.8379  -9.1937  -6.3969  -5.9038  -4.5404  -0.6284   1.1511   1.3107
     2.1122

          k =-0.1250 0.3609 0.0000 (  6184 PWs)   bands (ev):

   -12.5639  -9.3368  -6.5625  -5.9936  -5.0481  -0.0459   1.1208   1.2906
     2.0548

          k =-0.1875 0.3969 0.0000 (  6199 PWs)   bands (ev):

   -12.2247  -9.5715  -6.6151  -6.1512  -5.5248   0.5796   1.0467   1.4964
     1.9981

          k = 0.7500-0.1443 0.0000 (  6185 PWs)   bands (ev):

   -11.8362  -9.8934  -6.5815  -6.3714  -5.8460   0.7563   1.0491   1.8170
     2.1708

          k = 0.6875-0.1083 0.0000 (  6194 PWs)   bands (ev):

   -11.4377 -10.2592  -6.6410  -6.3995  -6.0614   0.6628   1.2269   1.6270
     2.1303

          k = 0.6250-0.0722 0.0000 (  6185 PWs)   bands (ev):

   -11.2034 -10.4838  -6.7094  -6.2719  -6.2207   0.6174   1.3959   1.4660
     2.0601

          k = 0.5625-0.0361 0.0000 (  6194 PWs)   bands (ev):

   -11.4407 -10.2547  -6.6418  -6.3974  -6.0641   0.6635   1.2272   1.6246
     2.1304

          k = 0.5000 0.0000 0.0000 (  6185 PWs)   bands (ev):

   -11.8392  -9.8881  -6.5798  -6.3710  -5.8507   0.7577   1.0489   1.8135
     2.1623

          k = 0.0000 0.3609 0.0000 (  6184 PWs)   bands (ev):

   -12.6831  -9.2914  -6.6242  -5.9213  -4.4718  -0.9928   1.0174   1.3055
     2.8542

          k =-0.0625 0.3969 0.0000 (  6191 PWs)   bands (ev):

   -12.4562  -9.4509  -6.7577  -5.9719  -4.7606  -0.7759   0.8734   1.3207
     2.4248

          k =-0.1250 0.4330 0.0000 (  6190 PWs)   bands (ev):

   -12.1641  -9.6710  -6.7857  -6.0585  -5.2670  -0.1296   0.8448   1.2836
     2.2416

          k = 0.8125-0.1083 0.0000 (  6186 PWs)   bands (ev):

   -11.8181  -9.9439  -6.7308  -6.2008  -5.7502   0.5111   1.1384   1.2342
     1.9509

          k = 0.7500-0.0722 0.0000 (  6194 PWs)   bands (ev):

   -11.4355 -10.2623  -6.6424  -6.3972  -6.0615   0.6638   1.2262   1.6269
     2.1356

          k = 0.6875-0.0361 0.0000 (  6181 PWs)   bands (ev):

   -11.0491 -10.6099  -6.6643  -6.4075  -6.2496   0.6842   1.2958   1.4350
     3.5036

          k = 0.6250 0.0000 0.0000 (  6181 PWs)   bands (ev):

   -11.0548 -10.6033  -6.6644  -6.4080  -6.2499   0.6841   1.2954   1.4352
     3.5104

          k = 0.0000 0.4330 0.0000 (  6186 PWs)   bands (ev):

   -12.2818  -9.6259  -6.8755  -5.9956  -4.6486  -1.1141   0.6499   1.3501
     3.0152

          k =-0.0625 0.4691 0.0000 (  6191 PWs)   bands (ev):

   -12.0495  -9.8377  -6.9037  -6.0447  -4.9121  -0.8534   0.5367   1.3440
     2.6806

          k = 0.8750-0.0722 0.0000 (  6197 PWs)   bands (ev):

   -11.7732 -10.0621  -6.8651  -6.1074  -5.4041  -0.1364   0.5235   1.3451
     2.2743

          k = 0.8125-0.0361 0.0000 (  6189 PWs)   bands (ev):

   -11.4757 -10.2841  -6.7904  -6.1739  -5.8987   0.4980   0.9193   1.3816
     1.8284

          k = 0.7500 0.0000 0.0000 (  6185 PWs)   bands (ev):

   -11.1962 -10.4928  -6.7098  -6.2678  -6.2227   0.6182   1.3946   1.4668
     2.0655

          k = 0.0000 0.5052 0.0000 (  6182 PWs)   bands (ev):

   -11.8946 -10.0236  -6.9459  -6.0672  -4.7579  -1.1724   0.3869   1.3404
     3.0344

          k = 0.9375-0.0361 0.0000 (  6192 PWs)   bands (ev):

   -11.7238 -10.1803  -6.9320  -6.0972  -4.9895  -0.8793   0.3432   1.3421
     2.7480

          k = 0.8750 0.0000 0.0000 (  6199 PWs)   bands (ev):

   -11.5733 -10.2701  -6.8798  -6.1249  -5.4524  -0.1168   0.3898   1.3701
     2.2598

          k = 0.0000-0.5774 0.0000 (  6174 PWs)   bands (ev):

   -11.7017 -10.2298  -6.9513  -6.0988  -4.7948  -1.1880   0.2929   1.3304
     3.0304

     the Fermi energy is    -3.3085 ev

!    total energy              =     -25.16171521 Ry
     estimated scf accuracy    <       0.00000100 Ry
     smearing contrib. (-TS)   =       0.00002422 Ry
     internal energy E=F+TS    =     -25.16173942 Ry

     The total energy is F=E-TS. E is the sum of the following terms:
     one-electron contribution =    -110.89201956 Ry
     hartree contribution      =      56.76332149 Ry
     xc contribution           =     -13.64735355 Ry
     ewald contribution        =      42.61459434 Ry
     one-center paw contrib.   =      -0.00028215 Ry

     convergence has been achieved in   5 iterations

     Writing output data file /home/jesus/Documentos/Nanociencia_DFT/silicano.save/
 
     init_run     :      3.86s CPU      4.09s WALL (       1 calls)
     electrons    :     50.98s CPU     52.28s WALL (       1 calls)

     Called by init_run:
     wfcinit      :      2.71s CPU      2.74s WALL (       1 calls)
     potinit      :      0.29s CPU      0.32s WALL (       1 calls)
     hinit0       :      0.54s CPU      0.57s WALL (       1 calls)

     Called by electrons:
     c_bands      :     41.92s CPU     42.02s WALL (       5 calls)
     sum_band     :      7.39s CPU      7.95s WALL (       5 calls)
     v_of_rho     :      0.60s CPU      0.65s WALL (       6 calls)
     newd         :      1.25s CPU      1.99s WALL (       6 calls)
     PAW_pot      :      0.01s CPU      0.01s WALL (       6 calls)
     mix_rho      :      0.06s CPU      0.06s WALL (       5 calls)

     Called by c_bands:
     init_us_2    :      1.65s CPU      1.66s WALL (     803 calls)
     cegterg      :     34.99s CPU     35.08s WALL (     365 calls)

     Called by *egterg:
     cdiaghg      :      0.29s CPU      0.29s WALL (    1928 calls)
     h_psi        :     32.19s CPU     32.28s WALL (    2001 calls)
     s_psi        :      1.36s CPU      1.37s WALL (    2001 calls)
     g_psi        :      0.14s CPU      0.15s WALL (    1563 calls)

     Called by h_psi:
     h_psi:calbec :      1.51s CPU      1.52s WALL (    2001 calls)
     vloc_psi     :     29.14s CPU     29.21s WALL (    2001 calls)
     add_vuspsi   :      1.37s CPU      1.38s WALL (    2001 calls)

     General routines
     calbec       :      1.89s CPU      1.90s WALL (    2366 calls)
     fft          :      0.23s CPU      0.25s WALL (      76 calls)
     ffts         :      0.01s CPU      0.01s WALL (      11 calls)
     fftw         :     29.77s CPU     29.84s WALL (   25023 calls)
     interpolate  :      0.04s CPU      0.04s WALL (       6 calls)
 
     Parallel routines
 
     PWSCF        :     55.67s CPU     57.41s WALL

 
   This run was terminated on:  15:12:50  31Mar2021            

=------------------------------------------------------------------------------=
   JOB DONE.
=------------------------------------------------------------------------------=
