
     Program PWSCF v.6.6 starts on 31Mar2021 at 15: 4:57 

     This program is part of the open-source Quantum ESPRESSO suite
     for quantum simulation of materials; please cite
         "P. Giannozzi et al., J. Phys.:Condens. Matter 21 395502 (2009);
         "P. Giannozzi et al., J. Phys.:Condens. Matter 29 465901 (2017);
          URL http://www.quantum-espresso.org", 
     in publications or presentations arising from this work. More details at
     http://www.quantum-espresso.org/quote

     Parallel version (MPI), running on     1 processors

     MPI processes distributed on     1 nodes
     Fft bands division:     nmany     =       1
     Waiting for input...
     Reading input from standard input
Warning: card &CELL ignored
Warning: card   CELL_DYNAMICS='BFGS', ignored
Warning: card   CELL_DOFREE='ALL', ignored
Warning: card / ignored

     Current dimensions of program PWSCF are:
     Max number of different atomic species (ntypx) = 10
     Max number of k-points (npk) =  40000
     Max angular momentum in pseudopotentials (lmaxx) =  3
     file H.pbe-kjpaw_psl.1.0.0.UPF: wavefunction(s)  1S renormalized

     Subspace diagonalization in iterative solution of the eigenvalue problem:
     a serial algorithm will be used

     Message from routine setup:
     using ibrav=0 with symmetry is DISCOURAGED, use correct ibrav instead
 
     G-vector sticks info
     --------------------
     sticks:   dense  smooth     PW     G-vecs:    dense   smooth      PW
     Sum         769     511    151                90535    49301    7907
 


     bravais-lattice index     =            0
     lattice parameter (alat)  =       7.3457  a.u.
     unit-cell volume          =    1765.6965 (a.u.)^3
     number of atoms/cell      =            4
     number of atomic types    =            2
     number of electrons       =        10.00
     number of Kohn-Sham states=            9
     kinetic-energy cutoff     =      35.0000  Ry
     charge density cutoff     =     210.0000  Ry
     convergence threshold     =      1.0E-06
     mixing beta               =       0.7000
     number of iterations used =            8  plain     mixing
     Exchange-correlation= SLA PW PBX PBC
                           (   1   4   3   4   0   0   0)

     celldm(1)=   7.345687  celldm(2)=   0.000000  celldm(3)=   0.000000
     celldm(4)=   0.000000  celldm(5)=   0.000000  celldm(6)=   0.000000

     crystal axes: (cart. coord. in units of alat)
               a(1) = (   0.500000   0.866000   0.000000 )  
               a(2) = (  -0.500000   0.866000   0.000000 )  
               a(3) = (   0.000000   0.000000   5.144000 )  

     reciprocal axes: (cart. coord. in units 2 pi/alat)
               b(1) = (  1.000000  0.577367  0.000000 )  
               b(2) = ( -1.000000  0.577367  0.000000 )  
               b(3) = (  0.000000  0.000000  0.194401 )  


     PseudoPot. # 1 for Si read from file:
     /home/jesus/Nanociencia_DFT/pseudopotenciales/Si.pbe-n-rrkjus_psl.1.0.0.UPF
     MD5 check sum: fa25574f73a70a4139f2adfbefec430c
     Pseudo is Ultrasoft + core correction, Zval =  4.0
     Generated using "atomic" code by A. Dal Corso v.6.3
     Using radial grid of 1141 points,  6 beta functions with: 
                l(1) =   0
                l(2) =   0
                l(3) =   1
                l(4) =   1
                l(5) =   2
                l(6) =   2
     Q(r) pseudized with 0 coefficients 


     PseudoPot. # 2 for H  read from file:
     /home/jesus/Nanociencia_DFT/pseudopotenciales/H.pbe-kjpaw_psl.1.0.0.UPF
     MD5 check sum: d81a744832360e4a8af0b0b5b123bc2a
     Pseudo is Projector augmented-wave, Zval =  1.0
     Generated using "atomic" code by A. Dal Corso v.6.3MaX
     Shape of augmentation charge: PSQ
     Using radial grid of  929 points,  2 beta functions with: 
                l(1) =   0
                l(2) =   0
     Q(r) pseudized with 0 coefficients 


     atomic species   valence    mass     pseudopotential
        Si             4.00    28.08550     Si( 1.00)
        H              1.00     1.00800     H ( 1.00)

      2 Sym. Ops. (no inversion) found



   Cartesian axes

     site n.     atom                  positions (alat units)
         1           H   tau(   1) = (   0.0000000   0.0000000   0.0000000  )
         2           Si  tau(   2) = (   0.0000000   0.0000000   0.3858000  )
         3           Si  tau(   3) = (   0.0000000   0.5767560   0.5709840  )
         4           H   tau(   4) = (   0.0000000   0.5767560   0.9567840  )

     number of k points=     3  Methfessel-Paxton smearing, width (Ry)=  0.0100
                       cart. coord. in units 2pi/alat
        k(    1) = (   0.0000000   0.0000000   0.0000000), wk =   0.5000000
        k(    2) = (   0.5000000  -0.2886836   0.0000000), wk =   1.0000000
        k(    3) = (   0.0000000  -0.5773672   0.0000000), wk =   0.5000000

     Dense  grid:    90535 G-vectors     FFT dimensions: (  36,  36, 180)

     Smooth grid:    49301 G-vectors     FFT dimensions: (  27,  27, 144)

     Estimated max dynamical RAM per process >     325.31 MB

     Initial potential from superposition of free atoms

     starting charge    9.99886, renormalised to   10.00000

     negative rho (up, down):  1.007E-04 0.000E+00
     Starting wfcs are   10 randomized atomic wfcs
     Checking if some PAW data can be deallocated... 

     total cpu time spent up to now is        3.8 secs

     Self-consistent Calculation

     iteration #  1     ecut=    35.00 Ry     beta= 0.70
     Davidson diagonalization with overlap
     ethr =  1.00E-02,  avg # of iterations =  3.0

     negative rho (up, down):  8.279E-05 0.000E+00

     total cpu time spent up to now is        5.3 secs

     total energy              =     -25.05853231 Ry
     estimated scf accuracy    <       0.19331547 Ry

     iteration #  2     ecut=    35.00 Ry     beta= 0.70
     Davidson diagonalization with overlap
     ethr =  1.93E-03,  avg # of iterations =  1.3

     negative rho (up, down):  9.759E-05 0.000E+00

     total cpu time spent up to now is        6.6 secs

     total energy              =     -25.06999031 Ry
     estimated scf accuracy    <       0.00562154 Ry

     iteration #  3     ecut=    35.00 Ry     beta= 0.70
     Davidson diagonalization with overlap
     ethr =  5.62E-05,  avg # of iterations =  6.0

     negative rho (up, down):  1.012E-04 0.000E+00

     total cpu time spent up to now is        8.3 secs

     total energy              =     -25.07080609 Ry
     estimated scf accuracy    <       0.00030688 Ry

     iteration #  4     ecut=    35.00 Ry     beta= 0.70
     Davidson diagonalization with overlap
     ethr =  3.07E-06,  avg # of iterations =  4.3

     negative rho (up, down):  1.018E-04 0.000E+00

     total cpu time spent up to now is        9.6 secs

     total energy              =     -25.07085744 Ry
     estimated scf accuracy    <       0.00002726 Ry

     iteration #  5     ecut=    35.00 Ry     beta= 0.70
     Davidson diagonalization with overlap
     ethr =  2.73E-07,  avg # of iterations =  2.0

     negative rho (up, down):  1.012E-04 0.000E+00

     total cpu time spent up to now is       10.9 secs

     total energy              =     -25.07086108 Ry
     estimated scf accuracy    <       0.00000140 Ry

     iteration #  6     ecut=    35.00 Ry     beta= 0.70
     Davidson diagonalization with overlap
     ethr =  1.40E-08,  avg # of iterations =  2.7

     negative rho (up, down):  1.005E-04 0.000E+00

     total cpu time spent up to now is       12.0 secs

     End of self-consistent calculation

          k = 0.0000 0.0000 0.0000 (  6083 PWs)   bands (ev):

   -13.5505  -9.0296  -5.7790  -3.2062  -3.1956  -0.9293   0.6637   0.6778
     0.8239

          k = 0.5000-0.2887 0.0000 (  6174 PWs)   bands (ev):

   -11.5501 -10.0664  -6.8340  -5.9838  -4.6361  -1.0606   0.3740   1.4146
     3.1427

          k = 0.0000-0.5774 0.0000 (  6174 PWs)   bands (ev):

   -11.5453 -10.0739  -6.8318  -5.9872  -4.6331  -1.0566   0.3772   1.4110
     3.1423

     the Fermi energy is    -3.0859 ev

!    total energy              =     -25.07086116 Ry
     estimated scf accuracy    <       0.00000056 Ry
     smearing contrib. (-TS)   =       0.00029155 Ry
     internal energy E=F+TS    =     -25.07115271 Ry

     The total energy is F=E-TS. E is the sum of the following terms:
     one-electron contribution =    -110.86770661 Ry
     hartree contribution      =      56.87275092 Ry
     xc contribution           =     -13.69050913 Ry
     ewald contribution        =      42.61459434 Ry
     one-center paw contrib.   =      -0.00028223 Ry

     convergence has been achieved in   6 iterations

     Writing output data file /home/jesus/Documentos/Nanociencia_DFT/silicano.save/
 
     init_run     :      1.42s CPU      2.32s WALL (       1 calls)
     electrons    :      6.77s CPU      8.37s WALL (       1 calls)

     Called by init_run:
     wfcinit      :      0.14s CPU      0.20s WALL (       1 calls)
     potinit      :      0.32s CPU      0.44s WALL (       1 calls)
     hinit0       :      0.63s CPU      1.06s WALL (       1 calls)

     Called by electrons:
     c_bands      :      1.98s CPU      2.01s WALL (       6 calls)
     sum_band     :      2.37s CPU      3.09s WALL (       6 calls)
     v_of_rho     :      0.80s CPU      0.87s WALL (       7 calls)
     newd         :      1.78s CPU      2.73s WALL (       7 calls)
     PAW_pot      :      0.01s CPU      0.04s WALL (       7 calls)
     mix_rho      :      0.10s CPU      0.10s WALL (       6 calls)

     Called by c_bands:
     init_us_2    :      0.08s CPU      0.09s WALL (      39 calls)
     cegterg      :      1.64s CPU      1.66s WALL (      18 calls)

     Called by *egterg:
     cdiaghg      :      0.01s CPU      0.08s WALL (      76 calls)
     h_psi        :      1.51s CPU      1.52s WALL (      79 calls)
     s_psi        :      0.06s CPU      0.06s WALL (      79 calls)
     g_psi        :      0.01s CPU      0.01s WALL (      58 calls)

     Called by h_psi:
     h_psi:calbec :      0.07s CPU      0.07s WALL (      79 calls)
     vloc_psi     :      1.38s CPU      1.38s WALL (      79 calls)
     add_vuspsi   :      0.06s CPU      0.06s WALL (      79 calls)

     General routines
     calbec       :      0.09s CPU      0.09s WALL (      97 calls)
     fft          :      0.33s CPU      0.53s WALL (      89 calls)
     ffts         :      0.02s CPU      0.02s WALL (      13 calls)
     fftw         :      1.43s CPU      1.43s WALL (    1126 calls)
     interpolate  :      0.06s CPU      0.06s WALL (       7 calls)
 
     Parallel routines
 
     PWSCF        :      9.16s CPU     12.35s WALL

 
   This run was terminated on:  15: 5: 9  31Mar2021            

=------------------------------------------------------------------------------=
   JOB DONE.
=------------------------------------------------------------------------------=
