
     Program PWSCF v.6.6 starts on 31Mar2021 at 15: 9:15 

     This program is part of the open-source Quantum ESPRESSO suite
     for quantum simulation of materials; please cite
         "P. Giannozzi et al., J. Phys.:Condens. Matter 21 395502 (2009);
         "P. Giannozzi et al., J. Phys.:Condens. Matter 29 465901 (2017);
          URL http://www.quantum-espresso.org", 
     in publications or presentations arising from this work. More details at
     http://www.quantum-espresso.org/quote

     Parallel version (MPI), running on     1 processors

     MPI processes distributed on     1 nodes
     Fft bands division:     nmany     =       1
     Waiting for input...
     Reading input from standard input
Warning: card &CELL ignored
Warning: card   CELL_DYNAMICS='BFGS', ignored
Warning: card   CELL_DOFREE='ALL', ignored
Warning: card / ignored

     Current dimensions of program PWSCF are:
     Max number of different atomic species (ntypx) = 10
     Max number of k-points (npk) =  40000
     Max angular momentum in pseudopotentials (lmaxx) =  3
     file H.pbe-kjpaw_psl.1.0.0.UPF: wavefunction(s)  1S renormalized

     Subspace diagonalization in iterative solution of the eigenvalue problem:
     a serial algorithm will be used

     Message from routine setup:
     using ibrav=0 with symmetry is DISCOURAGED, use correct ibrav instead
 
     G-vector sticks info
     --------------------
     sticks:   dense  smooth     PW     G-vecs:    dense   smooth      PW
     Sum         769     511    163                90535    49301    8967
 


     bravais-lattice index     =            0
     lattice parameter (alat)  =       7.3457  a.u.
     unit-cell volume          =    1765.6965 (a.u.)^3
     number of atoms/cell      =            4
     number of atomic types    =            2
     number of electrons       =        10.00
     number of Kohn-Sham states=            9
     kinetic-energy cutoff     =      35.0000  Ry
     charge density cutoff     =     210.0000  Ry
     convergence threshold     =      1.0E-06
     mixing beta               =       0.7000
     number of iterations used =            8  plain     mixing
     Exchange-correlation= SLA PW PBX PBC
                           (   1   4   3   4   0   0   0)

     celldm(1)=   7.345687  celldm(2)=   0.000000  celldm(3)=   0.000000
     celldm(4)=   0.000000  celldm(5)=   0.000000  celldm(6)=   0.000000

     crystal axes: (cart. coord. in units of alat)
               a(1) = (   0.500000   0.866000   0.000000 )  
               a(2) = (  -0.500000   0.866000   0.000000 )  
               a(3) = (   0.000000   0.000000   5.144000 )  

     reciprocal axes: (cart. coord. in units 2 pi/alat)
               b(1) = (  1.000000  0.577367  0.000000 )  
               b(2) = ( -1.000000  0.577367  0.000000 )  
               b(3) = (  0.000000  0.000000  0.194401 )  


     PseudoPot. # 1 for Si read from file:
     /home/jesus/Nanociencia_DFT/pseudopotenciales/Si.pbe-n-rrkjus_psl.1.0.0.UPF
     MD5 check sum: fa25574f73a70a4139f2adfbefec430c
     Pseudo is Ultrasoft + core correction, Zval =  4.0
     Generated using "atomic" code by A. Dal Corso v.6.3
     Using radial grid of 1141 points,  6 beta functions with: 
                l(1) =   0
                l(2) =   0
                l(3) =   1
                l(4) =   1
                l(5) =   2
                l(6) =   2
     Q(r) pseudized with 0 coefficients 


     PseudoPot. # 2 for H  read from file:
     /home/jesus/Nanociencia_DFT/pseudopotenciales/H.pbe-kjpaw_psl.1.0.0.UPF
     MD5 check sum: d81a744832360e4a8af0b0b5b123bc2a
     Pseudo is Projector augmented-wave, Zval =  1.0
     Generated using "atomic" code by A. Dal Corso v.6.3MaX
     Shape of augmentation charge: PSQ
     Using radial grid of  929 points,  2 beta functions with: 
                l(1) =   0
                l(2) =   0
     Q(r) pseudized with 0 coefficients 


     atomic species   valence    mass     pseudopotential
        Si             4.00    28.08550     Si( 1.00)
        H              1.00     1.00800     H ( 1.00)

      2 Sym. Ops. (no inversion) found



   Cartesian axes

     site n.     atom                  positions (alat units)
         1           H   tau(   1) = (   0.0000000   0.0000000   0.0000000  )
         2           Si  tau(   2) = (   0.0000000   0.0000000   0.3858000  )
         3           Si  tau(   3) = (   0.0000000   0.5767560   0.5709840  )
         4           H   tau(   4) = (   0.0000000   0.5767560   0.9567840  )

     number of k points=    49  Methfessel-Paxton smearing, width (Ry)=  0.0100
                       cart. coord. in units 2pi/alat
        k(    1) = (   0.0000000   0.0000000   0.0000000), wk =   0.0118343
        k(    2) = (  -0.0769231   0.0444129   0.0000000), wk =   0.0473373
        k(    3) = (  -0.1538462   0.0888257   0.0000000), wk =   0.0473373
        k(    4) = (  -0.2307692   0.1332386   0.0000000), wk =   0.0473373
        k(    5) = (  -0.3076923   0.1776514   0.0000000), wk =   0.0473373
        k(    6) = (  -0.3846154   0.2220643   0.0000000), wk =   0.0473373
        k(    7) = (  -0.4615385   0.2664772   0.0000000), wk =   0.0473373
        k(    8) = (   0.0000000   0.0888257   0.0000000), wk =   0.0236686
        k(    9) = (  -0.0769231   0.1332386   0.0000000), wk =   0.0473373
        k(   10) = (  -0.1538462   0.1776514   0.0000000), wk =   0.0473373
        k(   11) = (  -0.2307692   0.2220643   0.0000000), wk =   0.0473373
        k(   12) = (  -0.3076923   0.2664772   0.0000000), wk =   0.0473373
        k(   13) = (  -0.3846154   0.3108900   0.0000000), wk =   0.0473373
        k(   14) = (   0.5384615  -0.2220643   0.0000000), wk =   0.0473373
        k(   15) = (   0.4615385  -0.1776514   0.0000000), wk =   0.0473373
        k(   16) = (   0.3846154  -0.1332386   0.0000000), wk =   0.0473373
        k(   17) = (   0.3076923  -0.0888257   0.0000000), wk =   0.0473373
        k(   18) = (   0.2307692  -0.0444129   0.0000000), wk =   0.0473373
        k(   19) = (   0.1538462   0.0000000   0.0000000), wk =   0.0236686
        k(   20) = (   0.0000000   0.1776514   0.0000000), wk =   0.0236686
        k(   21) = (  -0.0769231   0.2220643   0.0000000), wk =   0.0473373
        k(   22) = (  -0.1538462   0.2664772   0.0000000), wk =   0.0473373
        k(   23) = (  -0.2307692   0.3108900   0.0000000), wk =   0.0473373
        k(   24) = (  -0.3076923   0.3553029   0.0000000), wk =   0.0473373
        k(   25) = (   0.6153846  -0.1776514   0.0000000), wk =   0.0473373
        k(   26) = (   0.5384615  -0.1332386   0.0000000), wk =   0.0473373
        k(   27) = (   0.4615385  -0.0888257   0.0000000), wk =   0.0473373
        k(   28) = (   0.3846154  -0.0444129   0.0000000), wk =   0.0473373
        k(   29) = (   0.3076923   0.0000000   0.0000000), wk =   0.0236686
        k(   30) = (   0.0000000   0.2664772   0.0000000), wk =   0.0236686
        k(   31) = (  -0.0769231   0.3108900   0.0000000), wk =   0.0473373
        k(   32) = (  -0.1538462   0.3553029   0.0000000), wk =   0.0473373
        k(   33) = (  -0.2307692   0.3997158   0.0000000), wk =   0.0473373
        k(   34) = (   0.6923077  -0.1332386   0.0000000), wk =   0.0473373
        k(   35) = (   0.6153846  -0.0888257   0.0000000), wk =   0.0473373
        k(   36) = (   0.5384615  -0.0444129   0.0000000), wk =   0.0473373
        k(   37) = (   0.4615385   0.0000000   0.0000000), wk =   0.0236686
        k(   38) = (   0.0000000   0.3553029   0.0000000), wk =   0.0236686
        k(   39) = (  -0.0769231   0.3997158   0.0000000), wk =   0.0473373
        k(   40) = (  -0.1538462   0.4441286   0.0000000), wk =   0.0473373
        k(   41) = (   0.7692308  -0.0888257   0.0000000), wk =   0.0473373
        k(   42) = (   0.6923077  -0.0444129   0.0000000), wk =   0.0473373
        k(   43) = (   0.6153846   0.0000000   0.0000000), wk =   0.0236686
        k(   44) = (   0.0000000   0.4441286   0.0000000), wk =   0.0236686
        k(   45) = (  -0.0769231   0.4885415   0.0000000), wk =   0.0473373
        k(   46) = (   0.8461538  -0.0444129   0.0000000), wk =   0.0473373
        k(   47) = (   0.7692308   0.0000000   0.0000000), wk =   0.0236686
        k(   48) = (   0.0000000   0.5329543   0.0000000), wk =   0.0236686
        k(   49) = (   0.9230769   0.0000000   0.0000000), wk =   0.0236686

     Dense  grid:    90535 G-vectors     FFT dimensions: (  36,  36, 180)

     Smooth grid:    49301 G-vectors     FFT dimensions: (  27,  27, 144)

     Estimated max dynamical RAM per process >     364.31 MB

     Initial potential from superposition of free atoms

     starting charge    9.99886, renormalised to   10.00000

     negative rho (up, down):  1.007E-04 0.000E+00
     Starting wfcs are   10 randomized atomic wfcs
     Checking if some PAW data can be deallocated... 

     total cpu time spent up to now is        4.0 secs

     Self-consistent Calculation

     iteration #  1     ecut=    35.00 Ry     beta= 0.70
     Davidson diagonalization with overlap
     ethr =  1.00E-02,  avg # of iterations =  3.6

     negative rho (up, down):  8.250E-05 0.000E+00

     total cpu time spent up to now is       11.9 secs

     total energy              =     -25.15095088 Ry
     estimated scf accuracy    <       0.16569248 Ry

     iteration #  2     ecut=    35.00 Ry     beta= 0.70
     Davidson diagonalization with overlap
     ethr =  1.66E-03,  avg # of iterations =  1.3

     negative rho (up, down):  9.781E-05 0.000E+00

     total cpu time spent up to now is       17.5 secs

     total energy              =     -25.16089185 Ry
     estimated scf accuracy    <       0.00461010 Ry

     iteration #  3     ecut=    35.00 Ry     beta= 0.70
     Davidson diagonalization with overlap
     ethr =  4.61E-05,  avg # of iterations =  8.7

     negative rho (up, down):  1.001E-04 0.000E+00

     total cpu time spent up to now is       27.3 secs

     total energy              =     -25.16166725 Ry
     estimated scf accuracy    <       0.00025645 Ry

     iteration #  4     ecut=    35.00 Ry     beta= 0.70
     Davidson diagonalization with overlap
     ethr =  2.56E-06,  avg # of iterations =  6.1

     negative rho (up, down):  1.032E-04 0.000E+00

     total cpu time spent up to now is       35.1 secs

     total energy              =     -25.16170945 Ry
     estimated scf accuracy    <       0.00002371 Ry

     iteration #  5     ecut=    35.00 Ry     beta= 0.70
     Davidson diagonalization with overlap
     ethr =  2.37E-07,  avg # of iterations =  1.7

     negative rho (up, down):  1.034E-04 0.000E+00

     total cpu time spent up to now is       40.8 secs

     End of self-consistent calculation

          k = 0.0000 0.0000 0.0000 (  6083 PWs)   bands (ev):

   -13.7060  -9.1468  -5.8793  -3.3901  -3.3745  -1.0458   0.5377   0.5544
     0.7936

          k =-0.0769 0.0444 0.0000 (  6106 PWs)   bands (ev):

   -13.6414  -9.1294  -5.8778  -3.9231  -3.5155  -0.6504   0.4914   0.7949
     0.8938

          k =-0.1538 0.0888 0.0000 (  6148 PWs)   bands (ev):

   -13.4491  -9.0934  -5.8830  -4.9138  -3.8196  -0.4826   0.7186   1.2614
     1.4258

          k =-0.2308 0.1332 0.0000 (  6166 PWs)   bands (ev):

   -13.1352  -9.0996  -5.9991  -5.7678  -4.1629  -0.7399   1.0489   1.4309
     2.2211

          k =-0.3077 0.1777 0.0000 (  6188 PWs)   bands (ev):

   -12.7139  -9.2693  -6.5909  -5.9148  -4.4617  -0.9868   1.0454   1.3006
     2.3712

          k =-0.3846 0.2221 0.0000 (  6184 PWs)   bands (ev):

   -12.2219  -9.6813  -6.8939  -6.0055  -4.6755  -1.1328   0.5991   1.3532
     3.0236

          k =-0.4615 0.2665 0.0000 (  6182 PWs)   bands (ev):

   -11.7878 -10.1341  -6.9510  -6.0832  -4.7860  -1.1884   0.3271   1.3381
     3.0322

          k = 0.0000 0.0888 0.0000 (  6108 PWs)   bands (ev):

   -13.6413  -9.1295  -5.8779  -3.9326  -3.5049  -0.6508   0.5009   0.7832
     0.8941

          k =-0.0769 0.1332 0.0000 (  6121 PWs)   bands (ev):

   -13.5128  -9.1024  -5.8791  -4.6188  -3.7807  -0.2457   0.4042   0.9656
     1.4646

          k =-0.1538 0.1777 0.0000 (  6150 PWs)   bands (ev):

   -13.2593  -9.0847  -5.9018  -5.4835  -4.1938  -0.2169   0.7230   1.2882
     1.6345

          k =-0.2308 0.2221 0.0000 (  6169 PWs)   bands (ev):

   -12.8901  -9.1662  -6.2955  -5.9003  -4.5719  -0.4707   1.1102   1.3767
     1.9926

          k =-0.3077 0.2665 0.0000 (  6185 PWs)   bands (ev):

   -12.4270  -9.4660  -6.7536  -5.9818  -4.8576  -0.6528   0.8828   1.3145
     2.3778

          k =-0.3846 0.3109 0.0000 (  6190 PWs)   bands (ev):

   -11.9347  -9.9424  -6.9069  -6.0657  -5.0353  -0.7299   0.4842   1.3467
     2.6137

          k = 0.5385-0.2221 0.0000 (  6192 PWs)   bands (ev):

   -11.6602 -10.2316  -6.9244  -6.1051  -5.0967  -0.7424   0.3286   1.3503
     2.6419

          k = 0.4615-0.1777 0.0000 (  6190 PWs)   bands (ev):

   -11.9353  -9.9413  -6.9071  -6.0648  -5.0368  -0.7292   0.4838   1.3468
     2.6128

          k = 0.3846-0.1332 0.0000 (  6185 PWs)   bands (ev):

   -12.4276  -9.4647  -6.7531  -5.9806  -4.8606  -0.6517   0.8830   1.3140
     2.3760

          k = 0.3077-0.0888 0.0000 (  6169 PWs)   bands (ev):

   -12.8906  -9.1653  -6.2936  -5.8989  -4.5767  -0.4693   1.1099   1.3774
     1.9881

          k = 0.2308-0.0444 0.0000 (  6148 PWs)   bands (ev):

   -13.2596  -9.0842  -5.9014  -5.4780  -4.2012  -0.2142   0.7173   1.2899
     1.6319

          k = 0.1538 0.0000 0.0000 (  6121 PWs)   bands (ev):

   -13.5130  -9.1022  -5.8789  -4.6097  -3.7918  -0.2423   0.3935   0.9683
     1.4729

          k = 0.0000 0.1777 0.0000 (  6148 PWs)   bands (ev):

   -13.4489  -9.0937  -5.8834  -4.9211  -3.8109  -0.4776   0.7200   1.2614
     1.4166

          k =-0.0769 0.2221 0.0000 (  6148 PWs)   bands (ev):

   -13.2591  -9.0849  -5.9024  -5.4861  -4.1904  -0.2102   0.7193   1.2873
     1.6320

          k =-0.1538 0.2665 0.0000 (  6169 PWs)   bands (ev):

   -12.9494  -9.1360  -6.0665  -5.9478  -4.7474   0.4337   0.5580   1.5393
     1.6908

          k =-0.2308 0.3109 0.0000 (  6182 PWs)   bands (ev):

   -12.5331  -9.3455  -6.5179  -6.0334  -5.1982   0.2972   1.0315   1.4427
     1.9777

          k =-0.3077 0.3553 0.0000 (  6188 PWs)   bands (ev):

   -12.0436  -9.7567  -6.7586  -6.1118  -5.4936   0.2105   0.9315   1.2523
     2.1114

          k = 0.6154-0.1777 0.0000 (  6198 PWs)   bands (ev):

   -11.5990 -10.2011  -6.8376  -6.1372  -5.6589   0.2677   0.5332   1.3697
     2.0552

          k = 0.5385-0.1332 0.0000 (  6198 PWs)   bands (ev):

   -11.6000 -10.1996  -6.8379  -6.1358  -5.6606   0.2697   0.5312   1.3698
     2.0550

          k = 0.4615-0.0888 0.0000 (  6188 PWs)   bands (ev):

   -12.0450  -9.7539  -6.7585  -6.1093  -5.4980   0.2124   0.9301   1.2516
     2.1103

          k = 0.3846-0.0444 0.0000 (  6182 PWs)   bands (ev):

   -12.5342  -9.3431  -6.5151  -6.0313  -5.2052   0.2991   1.0311   1.4412
     1.9762

          k = 0.3077 0.0000 0.0000 (  6173 PWs)   bands (ev):

   -12.9502  -9.1346  -6.0599  -5.9468  -4.7570   0.4386   0.5499   1.5420
     1.6899

          k = 0.0000 0.2665 0.0000 (  6166 PWs)   bands (ev):

   -13.1345  -9.1006  -6.0030  -5.7704  -4.1557  -0.7336   1.0487   1.4297
     2.2146

          k =-0.0769 0.3109 0.0000 (  6169 PWs)   bands (ev):

   -12.8894  -9.1674  -6.2994  -5.9002  -4.5678  -0.4639   1.1097   1.3762
     1.9882

          k =-0.1538 0.3553 0.0000 (  6182 PWs)   bands (ev):

   -12.5325  -9.3467  -6.5198  -6.0328  -5.1964   0.3027   1.0298   1.4429
     1.9762

          k =-0.2308 0.3997 0.0000 (  6183 PWs)   bands (ev):

   -12.0825  -9.6805  -6.5891  -6.2528  -5.6782   0.7800   0.9638   1.9135
     1.9657

          k = 0.6923-0.1332 0.0000 (  6194 PWs)   bands (ev):

   -11.5875 -10.1281  -6.6582  -6.3464  -5.9698   0.6493   1.2058   1.6565
     1.8790

          k = 0.6154-0.0888 0.0000 (  6191 PWs)   bands (ev):

   -11.2766 -10.4289  -6.7344  -6.1996  -6.1872   0.5827   1.3813   1.5505
     1.7123

          k = 0.5385-0.0444 0.0000 (  6194 PWs)   bands (ev):

   -11.5902 -10.1238  -6.6589  -6.3440  -5.9734   0.6505   1.2061   1.6506
     1.8822

          k = 0.4615 0.0000 0.0000 (  6185 PWs)   bands (ev):

   -12.0848  -9.6758  -6.5865  -6.2519  -5.6844   0.7824   0.9623   1.9089
     1.9588

          k = 0.0000 0.3553 0.0000 (  6188 PWs)   bands (ev):

   -12.7124  -9.2722  -6.5946  -5.9159  -4.4555  -0.9805   1.0458   1.2992
     2.8308

          k =-0.0769 0.3997 0.0000 (  6185 PWs)   bands (ev):

   -12.4252  -9.4696  -6.7558  -5.9826  -4.8533  -0.6463   0.8839   1.3123
     2.3774

          k =-0.1538 0.4441 0.0000 (  6186 PWs)   bands (ev):

   -12.0416  -9.7605  -6.7599  -6.1118  -5.4908   0.2161   0.9334   1.2496
     2.1115

          k = 0.7692-0.0888 0.0000 (  6194 PWs)   bands (ev):

   -11.5855 -10.1312  -6.6596  -6.3444  -5.9695   0.6508   1.2047   1.6575
     1.8829

          k = 0.6923-0.0444 0.0000 (  6173 PWs)   bands (ev):

   -11.1051 -10.5571  -6.6536  -6.4238  -6.2246   0.6840   1.2795   1.4613
     3.0346

          k = 0.6154 0.0000 0.0000 (  6173 PWs)   bands (ev):

   -11.1104 -10.5506  -6.6537  -6.4241  -6.2252   0.6840   1.2797   1.4613
     3.4225

          k = 0.0000 0.4441 0.0000 (  6184 PWs)   bands (ev):

   -12.2187  -9.6874  -6.8950  -6.0075  -4.6699  -1.1267   0.6003   1.3507
     3.0232

          k =-0.0769 0.4885 0.0000 (  6190 PWs)   bands (ev):

   -11.9304  -9.9497  -6.9071  -6.0677  -5.0307  -0.7235   0.4856   1.3438
     2.6137

          k = 0.8462-0.0444 0.0000 (  6198 PWs)   bands (ev):

   -11.5934 -10.2096  -6.8375  -6.1390  -5.6548   0.2737   0.5349   1.3667
     2.0557

          k = 0.7692 0.0000 0.0000 (  6191 PWs)   bands (ev):

   -11.2694 -10.4383  -6.7346  -6.2016  -6.1829   0.5837   1.3809   1.5514
     1.7163

          k = 0.0000 0.5330 0.0000 (  6182 PWs)   bands (ev):

   -11.7814 -10.1442  -6.9503  -6.0861  -4.7807  -1.1823   0.3290   1.3347
     3.0326

          k = 0.9231 0.0000 0.0000 (  6192 PWs)   bands (ev):

   -11.6528 -10.2427  -6.9236  -6.1081  -5.0914  -0.7364   0.3305   1.3467
     2.6425

     the Fermi energy is    -3.2979 ev

!    total energy              =     -25.16171234 Ry
     estimated scf accuracy    <       0.00000095 Ry
     smearing contrib. (-TS)   =       0.00002794 Ry
     internal energy E=F+TS    =     -25.16174029 Ry

     The total energy is F=E-TS. E is the sum of the following terms:
     one-electron contribution =    -110.89199628 Ry
     hartree contribution      =      56.76329582 Ry
     xc contribution           =     -13.64735203 Ry
     ewald contribution        =      42.61459434 Ry
     one-center paw contrib.   =      -0.00028215 Ry

     convergence has been achieved in   5 iterations

     Writing output data file /home/jesus/Documentos/Nanociencia_DFT/silicano.save/
 
     init_run     :      2.95s CPU      3.19s WALL (       1 calls)
     electrons    :     35.53s CPU     36.80s WALL (       1 calls)

     Called by init_run:
     wfcinit      :      1.84s CPU      1.87s WALL (       1 calls)
     potinit      :      0.29s CPU      0.31s WALL (       1 calls)
     hinit0       :      0.54s CPU      0.57s WALL (       1 calls)

     Called by electrons:
     c_bands      :     28.33s CPU     28.46s WALL (       5 calls)
     sum_band     :      5.46s CPU      6.01s WALL (       5 calls)
     v_of_rho     :      0.60s CPU      0.64s WALL (       6 calls)
     newd         :      1.33s CPU      2.02s WALL (       6 calls)
     PAW_pot      :      0.01s CPU      0.01s WALL (       6 calls)
     mix_rho      :      0.07s CPU      0.07s WALL (       5 calls)

     Called by c_bands:
     init_us_2    :      1.13s CPU      1.13s WALL (     539 calls)
     cegterg      :     23.65s CPU     23.78s WALL (     245 calls)

     Called by *egterg:
     cdiaghg      :      0.20s CPU      0.20s WALL (    1288 calls)
     h_psi        :     21.81s CPU     21.93s WALL (    1337 calls)
     s_psi        :      0.91s CPU      0.92s WALL (    1337 calls)
     g_psi        :      0.10s CPU      0.10s WALL (    1043 calls)

     Called by h_psi:
     h_psi:calbec :      1.02s CPU      1.02s WALL (    1337 calls)
     vloc_psi     :     19.75s CPU     19.85s WALL (    1337 calls)
     add_vuspsi   :      0.93s CPU      0.93s WALL (    1337 calls)

     General routines
     calbec       :      1.27s CPU      1.28s WALL (    1582 calls)
     fft          :      0.23s CPU      0.25s WALL (      76 calls)
     ffts         :      0.01s CPU      0.01s WALL (      11 calls)
     fftw         :     20.12s CPU     20.22s WALL (   16761 calls)
     interpolate  :      0.04s CPU      0.04s WALL (       6 calls)
 
     Parallel routines
 
     PWSCF        :     39.29s CPU     40.97s WALL

 
   This run was terminated on:  15: 9:56  31Mar2021            

=------------------------------------------------------------------------------=
   JOB DONE.
=------------------------------------------------------------------------------=
