
     Program PWSCF v.6.6 starts on 31Mar2021 at 15: 7:23 

     This program is part of the open-source Quantum ESPRESSO suite
     for quantum simulation of materials; please cite
         "P. Giannozzi et al., J. Phys.:Condens. Matter 21 395502 (2009);
         "P. Giannozzi et al., J. Phys.:Condens. Matter 29 465901 (2017);
          URL http://www.quantum-espresso.org", 
     in publications or presentations arising from this work. More details at
     http://www.quantum-espresso.org/quote

     Parallel version (MPI), running on     1 processors

     MPI processes distributed on     1 nodes
     Fft bands division:     nmany     =       1
     Waiting for input...
     Reading input from standard input
Warning: card &CELL ignored
Warning: card   CELL_DYNAMICS='BFGS', ignored
Warning: card   CELL_DOFREE='ALL', ignored
Warning: card / ignored

     Current dimensions of program PWSCF are:
     Max number of different atomic species (ntypx) = 10
     Max number of k-points (npk) =  40000
     Max angular momentum in pseudopotentials (lmaxx) =  3
     file H.pbe-kjpaw_psl.1.0.0.UPF: wavefunction(s)  1S renormalized

     Subspace diagonalization in iterative solution of the eigenvalue problem:
     a serial algorithm will be used

     Message from routine setup:
     using ibrav=0 with symmetry is DISCOURAGED, use correct ibrav instead
 
     G-vector sticks info
     --------------------
     sticks:   dense  smooth     PW     G-vecs:    dense   smooth      PW
     Sum         769     511    163                90535    49301    8943
 


     bravais-lattice index     =            0
     lattice parameter (alat)  =       7.3457  a.u.
     unit-cell volume          =    1765.6965 (a.u.)^3
     number of atoms/cell      =            4
     number of atomic types    =            2
     number of electrons       =        10.00
     number of Kohn-Sham states=            9
     kinetic-energy cutoff     =      35.0000  Ry
     charge density cutoff     =     210.0000  Ry
     convergence threshold     =      1.0E-06
     mixing beta               =       0.7000
     number of iterations used =            8  plain     mixing
     Exchange-correlation= SLA PW PBX PBC
                           (   1   4   3   4   0   0   0)

     celldm(1)=   7.345687  celldm(2)=   0.000000  celldm(3)=   0.000000
     celldm(4)=   0.000000  celldm(5)=   0.000000  celldm(6)=   0.000000

     crystal axes: (cart. coord. in units of alat)
               a(1) = (   0.500000   0.866000   0.000000 )  
               a(2) = (  -0.500000   0.866000   0.000000 )  
               a(3) = (   0.000000   0.000000   5.144000 )  

     reciprocal axes: (cart. coord. in units 2 pi/alat)
               b(1) = (  1.000000  0.577367  0.000000 )  
               b(2) = ( -1.000000  0.577367  0.000000 )  
               b(3) = (  0.000000  0.000000  0.194401 )  


     PseudoPot. # 1 for Si read from file:
     /home/jesus/Nanociencia_DFT/pseudopotenciales/Si.pbe-n-rrkjus_psl.1.0.0.UPF
     MD5 check sum: fa25574f73a70a4139f2adfbefec430c
     Pseudo is Ultrasoft + core correction, Zval =  4.0
     Generated using "atomic" code by A. Dal Corso v.6.3
     Using radial grid of 1141 points,  6 beta functions with: 
                l(1) =   0
                l(2) =   0
                l(3) =   1
                l(4) =   1
                l(5) =   2
                l(6) =   2
     Q(r) pseudized with 0 coefficients 


     PseudoPot. # 2 for H  read from file:
     /home/jesus/Nanociencia_DFT/pseudopotenciales/H.pbe-kjpaw_psl.1.0.0.UPF
     MD5 check sum: d81a744832360e4a8af0b0b5b123bc2a
     Pseudo is Projector augmented-wave, Zval =  1.0
     Generated using "atomic" code by A. Dal Corso v.6.3MaX
     Shape of augmentation charge: PSQ
     Using radial grid of  929 points,  2 beta functions with: 
                l(1) =   0
                l(2) =   0
     Q(r) pseudized with 0 coefficients 


     atomic species   valence    mass     pseudopotential
        Si             4.00    28.08550     Si( 1.00)
        H              1.00     1.00800     H ( 1.00)

      2 Sym. Ops. (no inversion) found



   Cartesian axes

     site n.     atom                  positions (alat units)
         1           H   tau(   1) = (   0.0000000   0.0000000   0.0000000  )
         2           Si  tau(   2) = (   0.0000000   0.0000000   0.3858000  )
         3           Si  tau(   3) = (   0.0000000   0.5767560   0.5709840  )
         4           H   tau(   4) = (   0.0000000   0.5767560   0.9567840  )

     number of k points=    31  Methfessel-Paxton smearing, width (Ry)=  0.0100
                       cart. coord. in units 2pi/alat
        k(    1) = (   0.0000000   0.0000000   0.0000000), wk =   0.0200000
        k(    2) = (  -0.1000000   0.0577367   0.0000000), wk =   0.0800000
        k(    3) = (  -0.2000000   0.1154734   0.0000000), wk =   0.0800000
        k(    4) = (  -0.3000000   0.1732102   0.0000000), wk =   0.0800000
        k(    5) = (  -0.4000000   0.2309469   0.0000000), wk =   0.0800000
        k(    6) = (   0.5000000  -0.2886836   0.0000000), wk =   0.0400000
        k(    7) = (   0.0000000   0.1154734   0.0000000), wk =   0.0400000
        k(    8) = (  -0.1000000   0.1732102   0.0000000), wk =   0.0800000
        k(    9) = (  -0.2000000   0.2309469   0.0000000), wk =   0.0800000
        k(   10) = (  -0.3000000   0.2886836   0.0000000), wk =   0.0800000
        k(   11) = (   0.6000000  -0.2309469   0.0000000), wk =   0.0800000
        k(   12) = (   0.5000000  -0.1732102   0.0000000), wk =   0.0800000
        k(   13) = (   0.4000000  -0.1154734   0.0000000), wk =   0.0800000
        k(   14) = (   0.3000000  -0.0577367   0.0000000), wk =   0.0800000
        k(   15) = (   0.2000000   0.0000000   0.0000000), wk =   0.0400000
        k(   16) = (   0.0000000   0.2309469   0.0000000), wk =   0.0400000
        k(   17) = (  -0.1000000   0.2886836   0.0000000), wk =   0.0800000
        k(   18) = (  -0.2000000   0.3464203   0.0000000), wk =   0.0800000
        k(   19) = (   0.7000000  -0.1732102   0.0000000), wk =   0.0800000
        k(   20) = (   0.6000000  -0.1154734   0.0000000), wk =   0.0800000
        k(   21) = (   0.5000000  -0.0577367   0.0000000), wk =   0.0800000
        k(   22) = (   0.4000000   0.0000000   0.0000000), wk =   0.0400000
        k(   23) = (   0.0000000   0.3464203   0.0000000), wk =   0.0400000
        k(   24) = (  -0.1000000   0.4041570   0.0000000), wk =   0.0800000
        k(   25) = (   0.8000000  -0.1154734   0.0000000), wk =   0.0800000
        k(   26) = (   0.7000000  -0.0577367   0.0000000), wk =   0.0800000
        k(   27) = (   0.6000000  -0.0000000   0.0000000), wk =   0.0400000
        k(   28) = (   0.0000000   0.4618938   0.0000000), wk =   0.0400000
        k(   29) = (   0.9000000  -0.0577367   0.0000000), wk =   0.0800000
        k(   30) = (   0.8000000   0.0000000   0.0000000), wk =   0.0400000
        k(   31) = (   0.0000000  -0.5773672   0.0000000), wk =   0.0200000

     Dense  grid:    90535 G-vectors     FFT dimensions: (  36,  36, 180)

     Smooth grid:    49301 G-vectors     FFT dimensions: (  27,  27, 144)

     Estimated max dynamical RAM per process >     349.05 MB

     Initial potential from superposition of free atoms

     starting charge    9.99886, renormalised to   10.00000

     negative rho (up, down):  1.007E-04 0.000E+00
     Starting wfcs are   10 randomized atomic wfcs
     Checking if some PAW data can be deallocated... 

     total cpu time spent up to now is        3.3 secs

     Self-consistent Calculation

     iteration #  1     ecut=    35.00 Ry     beta= 0.70
     Davidson diagonalization with overlap
     ethr =  1.00E-02,  avg # of iterations =  3.5

     negative rho (up, down):  8.222E-05 0.000E+00

     total cpu time spent up to now is        8.5 secs

     total energy              =     -25.15093302 Ry
     estimated scf accuracy    <       0.16568185 Ry

     iteration #  2     ecut=    35.00 Ry     beta= 0.70
     Davidson diagonalization with overlap
     ethr =  1.66E-03,  avg # of iterations =  1.3

     negative rho (up, down):  9.775E-05 0.000E+00

     total cpu time spent up to now is       12.4 secs

     total energy              =     -25.16084475 Ry
     estimated scf accuracy    <       0.00461810 Ry

     iteration #  3     ecut=    35.00 Ry     beta= 0.70
     Davidson diagonalization with overlap
     ethr =  4.62E-05,  avg # of iterations =  7.7

     negative rho (up, down):  1.001E-04 0.000E+00

     total cpu time spent up to now is       18.7 secs

     total energy              =     -25.16163868 Ry
     estimated scf accuracy    <       0.00025680 Ry

     iteration #  4     ecut=    35.00 Ry     beta= 0.70
     Davidson diagonalization with overlap
     c_bands:  1 eigenvalues not converged
     c_bands:  1 eigenvalues not converged
     ethr =  2.57E-06,  avg # of iterations =  6.6

     negative rho (up, down):  1.032E-04 0.000E+00

     total cpu time spent up to now is       24.1 secs

     total energy              =     -25.16168200 Ry
     estimated scf accuracy    <       0.00002381 Ry

     iteration #  5     ecut=    35.00 Ry     beta= 0.70
     Davidson diagonalization with overlap
     ethr =  2.38E-07,  avg # of iterations =  1.7

     negative rho (up, down):  1.032E-04 0.000E+00

     total cpu time spent up to now is       28.1 secs

     total energy              =     -25.16168499 Ry
     estimated scf accuracy    <       0.00000113 Ry

     iteration #  6     ecut=    35.00 Ry     beta= 0.70
     Davidson diagonalization with overlap
     ethr =  1.13E-08,  avg # of iterations =  2.1

     negative rho (up, down):  1.034E-04 0.000E+00

     total cpu time spent up to now is       32.4 secs

     End of self-consistent calculation

          k = 0.0000 0.0000 0.0000 (  6083 PWs)   bands (ev):

   -13.7022  -9.1419  -5.8750  -3.3864  -3.3708  -1.0431   0.5411   0.5578
     0.7948

          k =-0.1000 0.0577 0.0000 (  6110 PWs)   bands (ev):

   -13.5931  -9.1138  -5.8734  -4.2040  -3.5915  -0.5175   0.5152   0.9557
     0.9753

          k =-0.2000 0.1155 0.0000 (  6170 PWs)   bands (ev):

   -13.2709  -9.0805  -5.9051  -5.4838  -4.0240  -0.6230   0.9294   1.4317
     1.9044

          k =-0.3000 0.1732 0.0000 (  6176 PWs)   bands (ev):

   -12.7562  -9.2361  -6.5371  -5.9021  -4.4316  -0.9633   1.0908   1.2936
     2.7963

          k =-0.4000 0.2309 0.0000 (  6188 PWs)   bands (ev):

   -12.1188  -9.7765  -6.9141  -6.0197  -4.7027  -1.1471   0.5287   1.3549
     3.0351

          k = 0.5000-0.2887 0.0000 (  6174 PWs)   bands (ev):

   -11.7048 -10.2141  -6.9481  -6.0913  -4.7964  -1.1912   0.2940   1.3368
     3.0341

          k = 0.0000 0.1155 0.0000 (  6110 PWs)   bands (ev):

   -13.5930  -9.1139  -5.8736  -4.2127  -3.5815  -0.5165   0.5223   0.9448
     0.9756

          k =-0.1000 0.1732 0.0000 (  6125 PWs)   bands (ev):

   -13.3771  -9.0816  -5.8816  -5.1102  -4.0321  -0.0197   0.4017   1.1099
     1.9674

          k =-0.2000 0.2309 0.0000 (  6170 PWs)   bands (ev):

   -12.9566  -9.1314  -6.1362  -5.8964  -4.6072  -0.1723   0.9725   1.4705
     1.8000

          k =-0.3000 0.2887 0.0000 (  6188 PWs)   bands (ev):

   -12.3672  -9.4952  -6.7418  -6.0001  -5.0179  -0.4074   0.9156   1.2970
     2.2954

          k = 0.6000-0.2309 0.0000 (  6198 PWs)   bands (ev):

   -11.7535 -10.1004  -6.8950  -6.0928  -5.2315  -0.4664   0.4308   1.3561
     2.4625

          k = 0.5000-0.1732 0.0000 (  6198 PWs)   bands (ev):

   -11.7542 -10.0993  -6.8953  -6.0919  -5.2328  -0.4657   0.4303   1.3563
     2.4620

          k = 0.4000-0.1155 0.0000 (  6188 PWs)   bands (ev):

   -12.3680  -9.4935  -6.7413  -5.9985  -5.0216  -0.4061   0.9159   1.2963
     2.2936

          k = 0.3000-0.0577 0.0000 (  6170 PWs)   bands (ev):

   -12.9571  -9.1304  -6.1333  -5.8943  -4.6139  -0.1704   0.9702   1.4727
     1.7957

          k = 0.2000 0.0000 0.0000 (  6125 PWs)   bands (ev):

   -13.3774  -9.0812  -5.8811  -5.1017  -4.0428  -0.0154   0.3916   1.1122
     1.5509

          k = 0.0000 0.2309 0.0000 (  6170 PWs)   bands (ev):

   -13.2704  -9.0812  -5.9063  -5.4895  -4.0162  -0.6168   0.9296   1.4314
     1.8975

          k =-0.1000 0.2887 0.0000 (  6170 PWs)   bands (ev):

   -12.9561  -9.1322  -6.1397  -5.8958  -4.6041  -0.1656   0.9703   1.4709
     1.7953

          k =-0.2000 0.3464 0.0000 (  6183 PWs)   bands (ev):

   -12.4537  -9.3844  -6.5007  -6.0882  -5.3455   0.7321   0.8124   1.9342
     2.1729

          k = 0.7000-0.1732 0.0000 (  6190 PWs)   bands (ev):

   -11.8219  -9.9188  -6.6904  -6.2362  -5.7858   0.5845   1.1930   1.3426
     1.9239

          k = 0.6000-0.1155 0.0000 (  6201 PWs)   bands (ev):

   -11.3785 -10.3542  -6.7758  -6.1661  -6.0082   0.5255   1.0959   1.4323
     1.7237

          k = 0.5000-0.0577 0.0000 (  6190 PWs)   bands (ev):

   -11.8240  -9.9151  -6.6905  -6.2334  -5.7905   0.5866   1.1934   1.3385
     1.9245

          k = 0.4000 0.0000 0.0000 (  6183 PWs)   bands (ev):

   -12.4553  -9.3810  -6.4965  -6.0869  -5.3536   0.7361   0.8074   1.7619
     1.9370

          k = 0.0000 0.3464 0.0000 (  6176 PWs)   bands (ev):

   -12.7548  -9.2388  -6.5410  -5.9031  -4.4254  -0.9570   1.0912   1.2917
     2.3380

          k =-0.1000 0.4042 0.0000 (  6188 PWs)   bands (ev):

   -12.3655  -9.4986  -6.7439  -6.0006  -5.0141  -0.4009   0.9169   1.2945
     2.2948

          k = 0.8000-0.1155 0.0000 (  6190 PWs)   bands (ev):

   -11.8201  -9.9219  -6.6917  -6.2350  -5.7847   0.5874   1.1915   1.3458
     1.9242

          k = 0.7000-0.0577 0.0000 (  6169 PWs)   bands (ev):

   -11.1931 -10.4669  -6.6280  -6.4459  -6.1784   0.6888   1.2554   1.5096
     3.2812

          k = 0.6000-0.0000 0.0000 (  6169 PWs)   bands (ev):

   -11.1981 -10.4606  -6.6281  -6.4460  -6.1794   0.6888   1.2555   1.5093
     3.2883

          k = 0.0000 0.4619 0.0000 (  6188 PWs)   bands (ev):

   -12.1151  -9.7834  -6.9147  -6.0220  -4.6972  -1.1410   0.5302   1.3522
     3.0349

          k = 0.9000-0.0577 0.0000 (  6198 PWs)   bands (ev):

   -11.7481 -10.1090  -6.8948  -6.0950  -5.2269  -0.4601   0.4324   1.3530
     2.4628

          k = 0.8000 0.0000 0.0000 (  6201 PWs)   bands (ev):

   -11.3713 -10.3641  -6.7757  -6.1685  -6.0035   0.5268   1.1023   1.4292
     1.7245

          k = 0.0000-0.5774 0.0000 (  6174 PWs)   bands (ev):

   -11.6975 -10.2253  -6.9471  -6.0944  -4.7911  -1.1851   0.2959   1.3333
     3.0345

     the Fermi energy is    -3.2670 ev

!    total energy              =     -25.16168509 Ry
     estimated scf accuracy    <       0.00000034 Ry
     smearing contrib. (-TS)   =       0.00001621 Ry
     internal energy E=F+TS    =     -25.16170130 Ry

     The total energy is F=E-TS. E is the sum of the following terms:
     one-electron contribution =    -110.89035639 Ry
     hartree contribution      =      56.76149375 Ry
     xc contribution           =     -13.64715085 Ry
     ewald contribution        =      42.61459434 Ry
     one-center paw contrib.   =      -0.00028215 Ry

     convergence has been achieved in   6 iterations

     Writing output data file /home/jesus/Documentos/Nanociencia_DFT/silicano.save/
 
     init_run     :      2.30s CPU      2.51s WALL (       1 calls)
     electrons    :     27.51s CPU     29.06s WALL (       1 calls)

     Called by init_run:
     wfcinit      :      1.15s CPU      1.17s WALL (       1 calls)
     potinit      :      0.32s CPU      0.32s WALL (       1 calls)
     hinit0       :      0.54s CPU      0.57s WALL (       1 calls)

     Called by electrons:
     c_bands      :     20.79s CPU     20.88s WALL (       6 calls)
     sum_band     :      4.67s CPU      5.37s WALL (       6 calls)
     v_of_rho     :      0.74s CPU      0.78s WALL (       7 calls)
     newd         :      1.50s CPU      2.36s WALL (       7 calls)
     PAW_pot      :      0.01s CPU      0.01s WALL (       7 calls)
     mix_rho      :      0.08s CPU      0.08s WALL (       6 calls)

     Called by c_bands:
     init_us_2    :      0.85s CPU      0.85s WALL (     403 calls)
     cegterg      :     17.21s CPU     17.28s WALL (     186 calls)

     Called by *egterg:
     cdiaghg      :      0.14s CPU      0.14s WALL (     901 calls)
     h_psi        :     15.78s CPU     15.84s WALL (     932 calls)
     s_psi        :      0.65s CPU      0.65s WALL (     932 calls)
     g_psi        :      0.07s CPU      0.07s WALL (     715 calls)

     Called by h_psi:
     h_psi:calbec :      0.73s CPU      0.74s WALL (     932 calls)
     vloc_psi     :     14.29s CPU     14.35s WALL (     932 calls)
     add_vuspsi   :      0.67s CPU      0.67s WALL (     932 calls)

     General routines
     calbec       :      0.93s CPU      0.93s WALL (    1118 calls)
     fft          :      0.27s CPU      0.29s WALL (      89 calls)
     ffts         :      0.02s CPU      0.02s WALL (      13 calls)
     fftw         :     14.64s CPU     14.69s WALL (   12256 calls)
     interpolate  :      0.04s CPU      0.04s WALL (       7 calls)
 
     Parallel routines
 
     PWSCF        :     30.66s CPU     32.52s WALL

 
   This run was terminated on:  15: 7:56  31Mar2021            

=------------------------------------------------------------------------------=
   JOB DONE.
=------------------------------------------------------------------------------=
