
     Program PWSCF v.6.6 starts on 31Mar2021 at 15: 6:31 

     This program is part of the open-source Quantum ESPRESSO suite
     for quantum simulation of materials; please cite
         "P. Giannozzi et al., J. Phys.:Condens. Matter 21 395502 (2009);
         "P. Giannozzi et al., J. Phys.:Condens. Matter 29 465901 (2017);
          URL http://www.quantum-espresso.org", 
     in publications or presentations arising from this work. More details at
     http://www.quantum-espresso.org/quote

     Parallel version (MPI), running on     1 processors

     MPI processes distributed on     1 nodes
     Fft bands division:     nmany     =       1
     Waiting for input...
     Reading input from standard input
Warning: card &CELL ignored
Warning: card   CELL_DYNAMICS='BFGS', ignored
Warning: card   CELL_DOFREE='ALL', ignored
Warning: card / ignored

     Current dimensions of program PWSCF are:
     Max number of different atomic species (ntypx) = 10
     Max number of k-points (npk) =  40000
     Max angular momentum in pseudopotentials (lmaxx) =  3
     file H.pbe-kjpaw_psl.1.0.0.UPF: wavefunction(s)  1S renormalized

     Subspace diagonalization in iterative solution of the eigenvalue problem:
     a serial algorithm will be used

     Message from routine setup:
     using ibrav=0 with symmetry is DISCOURAGED, use correct ibrav instead
 
     G-vector sticks info
     --------------------
     sticks:   dense  smooth     PW     G-vecs:    dense   smooth      PW
     Sum         769     511    163                90535    49301    8823
 


     bravais-lattice index     =            0
     lattice parameter (alat)  =       7.3457  a.u.
     unit-cell volume          =    1765.6965 (a.u.)^3
     number of atoms/cell      =            4
     number of atomic types    =            2
     number of electrons       =        10.00
     number of Kohn-Sham states=            9
     kinetic-energy cutoff     =      35.0000  Ry
     charge density cutoff     =     210.0000  Ry
     convergence threshold     =      1.0E-06
     mixing beta               =       0.7000
     number of iterations used =            8  plain     mixing
     Exchange-correlation= SLA PW PBX PBC
                           (   1   4   3   4   0   0   0)

     celldm(1)=   7.345687  celldm(2)=   0.000000  celldm(3)=   0.000000
     celldm(4)=   0.000000  celldm(5)=   0.000000  celldm(6)=   0.000000

     crystal axes: (cart. coord. in units of alat)
               a(1) = (   0.500000   0.866000   0.000000 )  
               a(2) = (  -0.500000   0.866000   0.000000 )  
               a(3) = (   0.000000   0.000000   5.144000 )  

     reciprocal axes: (cart. coord. in units 2 pi/alat)
               b(1) = (  1.000000  0.577367  0.000000 )  
               b(2) = ( -1.000000  0.577367  0.000000 )  
               b(3) = (  0.000000  0.000000  0.194401 )  


     PseudoPot. # 1 for Si read from file:
     /home/jesus/Nanociencia_DFT/pseudopotenciales/Si.pbe-n-rrkjus_psl.1.0.0.UPF
     MD5 check sum: fa25574f73a70a4139f2adfbefec430c
     Pseudo is Ultrasoft + core correction, Zval =  4.0
     Generated using "atomic" code by A. Dal Corso v.6.3
     Using radial grid of 1141 points,  6 beta functions with: 
                l(1) =   0
                l(2) =   0
                l(3) =   1
                l(4) =   1
                l(5) =   2
                l(6) =   2
     Q(r) pseudized with 0 coefficients 


     PseudoPot. # 2 for H  read from file:
     /home/jesus/Nanociencia_DFT/pseudopotenciales/H.pbe-kjpaw_psl.1.0.0.UPF
     MD5 check sum: d81a744832360e4a8af0b0b5b123bc2a
     Pseudo is Projector augmented-wave, Zval =  1.0
     Generated using "atomic" code by A. Dal Corso v.6.3MaX
     Shape of augmentation charge: PSQ
     Using radial grid of  929 points,  2 beta functions with: 
                l(1) =   0
                l(2) =   0
     Q(r) pseudized with 0 coefficients 


     atomic species   valence    mass     pseudopotential
        Si             4.00    28.08550     Si( 1.00)
        H              1.00     1.00800     H ( 1.00)

      2 Sym. Ops. (no inversion) found



   Cartesian axes

     site n.     atom                  positions (alat units)
         1           H   tau(   1) = (   0.0000000   0.0000000   0.0000000  )
         2           Si  tau(   2) = (   0.0000000   0.0000000   0.3858000  )
         3           Si  tau(   3) = (   0.0000000   0.5767560   0.5709840  )
         4           H   tau(   4) = (   0.0000000   0.5767560   0.9567840  )

     number of k points=    21  Methfessel-Paxton smearing, width (Ry)=  0.0100
                       cart. coord. in units 2pi/alat
        k(    1) = (   0.0000000   0.0000000   0.0000000), wk =   0.0312500
        k(    2) = (  -0.1250000   0.0721709   0.0000000), wk =   0.1250000
        k(    3) = (  -0.2500000   0.1443418   0.0000000), wk =   0.1250000
        k(    4) = (  -0.3750000   0.2165127   0.0000000), wk =   0.1250000
        k(    5) = (   0.5000000  -0.2886836   0.0000000), wk =   0.0625000
        k(    6) = (   0.0000000   0.1443418   0.0000000), wk =   0.0625000
        k(    7) = (  -0.1250000   0.2165127   0.0000000), wk =   0.1250000
        k(    8) = (  -0.2500000   0.2886836   0.0000000), wk =   0.1250000
        k(    9) = (   0.6250000  -0.2165127   0.0000000), wk =   0.1250000
        k(   10) = (   0.5000000  -0.1443418   0.0000000), wk =   0.1250000
        k(   11) = (   0.3750000  -0.0721709   0.0000000), wk =   0.1250000
        k(   12) = (   0.2500000   0.0000000   0.0000000), wk =   0.0625000
        k(   13) = (   0.0000000   0.2886836   0.0000000), wk =   0.0625000
        k(   14) = (  -0.1250000   0.3608545   0.0000000), wk =   0.1250000
        k(   15) = (   0.7500000  -0.1443418   0.0000000), wk =   0.1250000
        k(   16) = (   0.6250000  -0.0721709   0.0000000), wk =   0.1250000
        k(   17) = (   0.5000000   0.0000000   0.0000000), wk =   0.0625000
        k(   18) = (   0.0000000   0.4330254   0.0000000), wk =   0.0625000
        k(   19) = (   0.8750000  -0.0721709   0.0000000), wk =   0.1250000
        k(   20) = (   0.7500000   0.0000000   0.0000000), wk =   0.0625000
        k(   21) = (   0.0000000  -0.5773672   0.0000000), wk =   0.0312500

     Dense  grid:    90535 G-vectors     FFT dimensions: (  36,  36, 180)

     Smooth grid:    49301 G-vectors     FFT dimensions: (  27,  27, 144)

     Estimated max dynamical RAM per process >     340.57 MB

     Initial potential from superposition of free atoms

     starting charge    9.99886, renormalised to   10.00000

     negative rho (up, down):  1.007E-04 0.000E+00
     Starting wfcs are   10 randomized atomic wfcs
     Checking if some PAW data can be deallocated... 

     total cpu time spent up to now is        2.9 secs

     Self-consistent Calculation

     iteration #  1     ecut=    35.00 Ry     beta= 0.70
     Davidson diagonalization with overlap
     ethr =  1.00E-02,  avg # of iterations =  3.5

     negative rho (up, down):  8.256E-05 0.000E+00

     total cpu time spent up to now is        6.7 secs

     total energy              =     -25.15082865 Ry
     estimated scf accuracy    <       0.16577177 Ry

     iteration #  2     ecut=    35.00 Ry     beta= 0.70
     Davidson diagonalization with overlap
     ethr =  1.66E-03,  avg # of iterations =  1.3

     negative rho (up, down):  9.789E-05 0.000E+00

     total cpu time spent up to now is        9.6 secs

     total energy              =     -25.16073090 Ry
     estimated scf accuracy    <       0.00462822 Ry

     iteration #  3     ecut=    35.00 Ry     beta= 0.70
     Davidson diagonalization with overlap
     c_bands:  1 eigenvalues not converged
     ethr =  4.63E-05,  avg # of iterations =  8.4

     negative rho (up, down):  9.987E-05 0.000E+00

     total cpu time spent up to now is       14.2 secs

     total energy              =     -25.16150954 Ry
     estimated scf accuracy    <       0.00025889 Ry

     iteration #  4     ecut=    35.00 Ry     beta= 0.70
     Davidson diagonalization with overlap
     ethr =  2.59E-06,  avg # of iterations =  5.6

     negative rho (up, down):  1.031E-04 0.000E+00

     total cpu time spent up to now is       18.0 secs

     total energy              =     -25.16155304 Ry
     estimated scf accuracy    <       0.00002351 Ry

     iteration #  5     ecut=    35.00 Ry     beta= 0.70
     Davidson diagonalization with overlap
     ethr =  2.35E-07,  avg # of iterations =  2.2

     negative rho (up, down):  1.031E-04 0.000E+00

     total cpu time spent up to now is       21.0 secs

     total energy              =     -25.16155589 Ry
     estimated scf accuracy    <       0.00000202 Ry

     iteration #  6     ecut=    35.00 Ry     beta= 0.70
     Davidson diagonalization with overlap
     ethr =  2.02E-08,  avg # of iterations =  1.9

     negative rho (up, down):  1.034E-04 0.000E+00

     total cpu time spent up to now is       24.0 secs

     End of self-consistent calculation

          k = 0.0000 0.0000 0.0000 (  6083 PWs)   bands (ev):

   -13.7030  -9.1433  -5.8762  -3.3869  -3.3715  -1.0437   0.5403   0.5570
     0.7945

          k =-0.1250 0.0722 0.0000 (  6130 PWs)   bands (ev):

   -13.5329  -9.1029  -5.8756  -4.5306  -3.6915  -0.4558   0.5905   1.0956
     1.1591

          k =-0.2500 0.1443 0.0000 (  6174 PWs)   bands (ev):

   -13.0361  -9.1173  -6.1382  -5.8363  -4.2410  -0.8067   1.1158   1.3856
     2.1683

          k =-0.3750 0.2165 0.0000 (  6186 PWs)   bands (ev):

   -12.2815  -9.6166  -6.8712  -5.9905  -4.6512  -1.1179   0.6509   1.3546
     3.0189

          k = 0.5000-0.2887 0.0000 (  6174 PWs)   bands (ev):

   -11.7057 -10.2151  -6.9492  -6.0925  -4.7970  -1.1917   0.2932   1.3361
     3.0330

          k = 0.0000 0.1443 0.0000 (  6130 PWs)   bands (ev):

   -13.5327  -9.1030  -5.8759  -4.5385  -3.6821  -0.4528   0.5945   1.0962
     1.1490

          k =-0.1250 0.2165 0.0000 (  6149 PWs)   bands (ev):

   -13.1983  -9.0836  -5.9012  -5.6001  -4.3514   0.1977   0.4469   1.2948
     1.6476

          k =-0.2500 0.2887 0.0000 (  6184 PWs)   bands (ev):

   -12.5616  -9.3312  -6.5572  -5.9906  -5.0481  -0.0495   1.1224   1.2951
     2.0577

          k = 0.6250-0.2165 0.0000 (  6197 PWs)   bands (ev):

   -11.7745 -10.0511  -6.8620  -6.1025  -5.4054  -0.1402   0.5244   1.3502
     2.2764

          k = 0.5000-0.1443 0.0000 (  6197 PWs)   bands (ev):

   -11.7754 -10.0495  -6.8623  -6.1011  -5.4074  -0.1390   0.5234   1.3503
     2.2759

          k = 0.3750-0.0722 0.0000 (  6184 PWs)   bands (ev):

   -12.5625  -9.3292  -6.5554  -5.9887  -5.0538  -0.0480   1.1241   1.2923
     2.0557

          k = 0.2500 0.0000 0.0000 (  6149 PWs)   bands (ev):

   -13.1988  -9.0828  -5.9005  -5.5924  -4.3615   0.2025   0.4376   1.2971
     1.6468

          k = 0.0000 0.2887 0.0000 (  6174 PWs)   bands (ev):

   -13.0352  -9.1186  -6.1432  -5.8374  -4.2341  -0.8004   1.1157   1.3847
     2.1670

          k =-0.1250 0.3609 0.0000 (  6184 PWs)   bands (ev):

   -12.5607  -9.3329  -6.5597  -5.9904  -5.0452  -0.0434   1.1228   1.2932
     2.0564

          k = 0.7500-0.1443 0.0000 (  6185 PWs)   bands (ev):

   -11.8329  -9.8897  -6.5786  -6.3683  -5.8430   0.7588   1.0513   1.8192
     2.1733

          k = 0.6250-0.0722 0.0000 (  6185 PWs)   bands (ev):

   -11.1999 -10.4803  -6.7064  -6.2690  -6.2176   0.6198   1.3981   1.4683
     2.0629

          k = 0.5000 0.0000 0.0000 (  6185 PWs)   bands (ev):

   -11.8358  -9.8845  -6.5770  -6.3679  -5.8476   0.7601   1.0510   1.8158
     2.1649

          k = 0.0000 0.4330 0.0000 (  6186 PWs)   bands (ev):

   -12.2786  -9.6222  -6.8725  -5.9924  -4.6457  -1.1118   0.6520   1.3523
     3.0183

          k = 0.8750-0.0722 0.0000 (  6197 PWs)   bands (ev):

   -11.7700 -10.0584  -6.8620  -6.1042  -5.4013  -0.1339   0.5258   1.3473
     2.2767

          k = 0.7500 0.0000 0.0000 (  6185 PWs)   bands (ev):

   -11.1929 -10.4892  -6.7067  -6.2649  -6.2196   0.6207   1.3968   1.4691
     2.0681

          k = 0.0000-0.5774 0.0000 (  6174 PWs)   bands (ev):

   -11.6984 -10.2262  -6.9481  -6.0956  -4.7918  -1.1857   0.2952   1.3326
     3.0334

     the Fermi energy is    -3.2639 ev

!    total energy              =     -25.16155611 Ry
     estimated scf accuracy    <       0.00000043 Ry
     smearing contrib. (-TS)   =       0.00001855 Ry
     internal energy E=F+TS    =     -25.16157467 Ry

     The total energy is F=E-TS. E is the sum of the following terms:
     one-electron contribution =    -110.89130489 Ry
     hartree contribution      =      56.76292714 Ry
     xc contribution           =     -13.64750911 Ry
     ewald contribution        =      42.61459434 Ry
     one-center paw contrib.   =      -0.00028215 Ry

     convergence has been achieved in   6 iterations

     Writing output data file /home/jesus/Documentos/Nanociencia_DFT/silicano.save/
 
     init_run     :      1.91s CPU      2.11s WALL (       1 calls)
     electrons    :     19.57s CPU     21.12s WALL (       1 calls)

     Called by init_run:
     wfcinit      :      0.78s CPU      0.79s WALL (       1 calls)
     potinit      :      0.30s CPU      0.32s WALL (       1 calls)
     hinit0       :      0.55s CPU      0.57s WALL (       1 calls)

     Called by electrons:
     c_bands      :     13.88s CPU     13.93s WALL (       6 calls)
     sum_band     :      3.71s CPU      4.40s WALL (       6 calls)
     v_of_rho     :      0.70s CPU      0.75s WALL (       7 calls)
     newd         :      1.43s CPU      2.35s WALL (       7 calls)
     PAW_pot      :      0.01s CPU      0.01s WALL (       7 calls)
     mix_rho      :      0.08s CPU      0.08s WALL (       6 calls)

     Called by c_bands:
     init_us_2    :      0.57s CPU      0.57s WALL (     273 calls)
     cegterg      :     11.48s CPU     11.52s WALL (     126 calls)

     Called by *egterg:
     cdiaghg      :      0.09s CPU      0.09s WALL (     608 calls)
     h_psi        :     10.52s CPU     10.56s WALL (     629 calls)
     s_psi        :      0.44s CPU      0.44s WALL (     629 calls)
     g_psi        :      0.05s CPU      0.05s WALL (     482 calls)

     Called by h_psi:
     h_psi:calbec :      0.49s CPU      0.49s WALL (     629 calls)
     vloc_psi     :      9.52s CPU      9.56s WALL (     629 calls)
     add_vuspsi   :      0.45s CPU      0.45s WALL (     629 calls)

     General routines
     calbec       :      0.62s CPU      0.63s WALL (     755 calls)
     fft          :      0.27s CPU      0.29s WALL (      89 calls)
     ffts         :      0.02s CPU      0.02s WALL (      13 calls)
     fftw         :      9.79s CPU      9.83s WALL (    8194 calls)
     interpolate  :      0.05s CPU      0.05s WALL (       7 calls)
 
     Parallel routines
 
     PWSCF        :     22.30s CPU     24.28s WALL

 
   This run was terminated on:  15: 6:55  31Mar2021            

=------------------------------------------------------------------------------=
   JOB DONE.
=------------------------------------------------------------------------------=
