
     Program PWSCF v.6.6 starts on 31Mar2021 at 15: 8:33 

     This program is part of the open-source Quantum ESPRESSO suite
     for quantum simulation of materials; please cite
         "P. Giannozzi et al., J. Phys.:Condens. Matter 21 395502 (2009);
         "P. Giannozzi et al., J. Phys.:Condens. Matter 29 465901 (2017);
          URL http://www.quantum-espresso.org", 
     in publications or presentations arising from this work. More details at
     http://www.quantum-espresso.org/quote

     Parallel version (MPI), running on     1 processors

     MPI processes distributed on     1 nodes
     Fft bands division:     nmany     =       1
     Waiting for input...
     Reading input from standard input
Warning: card &CELL ignored
Warning: card   CELL_DYNAMICS='BFGS', ignored
Warning: card   CELL_DOFREE='ALL', ignored
Warning: card / ignored

     Current dimensions of program PWSCF are:
     Max number of different atomic species (ntypx) = 10
     Max number of k-points (npk) =  40000
     Max angular momentum in pseudopotentials (lmaxx) =  3
     file H.pbe-kjpaw_psl.1.0.0.UPF: wavefunction(s)  1S renormalized

     Subspace diagonalization in iterative solution of the eigenvalue problem:
     a serial algorithm will be used

     Message from routine setup:
     using ibrav=0 with symmetry is DISCOURAGED, use correct ibrav instead
 
     G-vector sticks info
     --------------------
     sticks:   dense  smooth     PW     G-vecs:    dense   smooth      PW
     Sum         769     511    163                90535    49301    8967
 


     bravais-lattice index     =            0
     lattice parameter (alat)  =       7.3457  a.u.
     unit-cell volume          =    1765.6965 (a.u.)^3
     number of atoms/cell      =            4
     number of atomic types    =            2
     number of electrons       =        10.00
     number of Kohn-Sham states=            9
     kinetic-energy cutoff     =      35.0000  Ry
     charge density cutoff     =     210.0000  Ry
     convergence threshold     =      1.0E-06
     mixing beta               =       0.7000
     number of iterations used =            8  plain     mixing
     Exchange-correlation= SLA PW PBX PBC
                           (   1   4   3   4   0   0   0)

     celldm(1)=   7.345687  celldm(2)=   0.000000  celldm(3)=   0.000000
     celldm(4)=   0.000000  celldm(5)=   0.000000  celldm(6)=   0.000000

     crystal axes: (cart. coord. in units of alat)
               a(1) = (   0.500000   0.866000   0.000000 )  
               a(2) = (  -0.500000   0.866000   0.000000 )  
               a(3) = (   0.000000   0.000000   5.144000 )  

     reciprocal axes: (cart. coord. in units 2 pi/alat)
               b(1) = (  1.000000  0.577367  0.000000 )  
               b(2) = ( -1.000000  0.577367  0.000000 )  
               b(3) = (  0.000000  0.000000  0.194401 )  


     PseudoPot. # 1 for Si read from file:
     /home/jesus/Nanociencia_DFT/pseudopotenciales/Si.pbe-n-rrkjus_psl.1.0.0.UPF
     MD5 check sum: fa25574f73a70a4139f2adfbefec430c
     Pseudo is Ultrasoft + core correction, Zval =  4.0
     Generated using "atomic" code by A. Dal Corso v.6.3
     Using radial grid of 1141 points,  6 beta functions with: 
                l(1) =   0
                l(2) =   0
                l(3) =   1
                l(4) =   1
                l(5) =   2
                l(6) =   2
     Q(r) pseudized with 0 coefficients 


     PseudoPot. # 2 for H  read from file:
     /home/jesus/Nanociencia_DFT/pseudopotenciales/H.pbe-kjpaw_psl.1.0.0.UPF
     MD5 check sum: d81a744832360e4a8af0b0b5b123bc2a
     Pseudo is Projector augmented-wave, Zval =  1.0
     Generated using "atomic" code by A. Dal Corso v.6.3MaX
     Shape of augmentation charge: PSQ
     Using radial grid of  929 points,  2 beta functions with: 
                l(1) =   0
                l(2) =   0
     Q(r) pseudized with 0 coefficients 


     atomic species   valence    mass     pseudopotential
        Si             4.00    28.08550     Si( 1.00)
        H              1.00     1.00800     H ( 1.00)

      2 Sym. Ops. (no inversion) found



   Cartesian axes

     site n.     atom                  positions (alat units)
         1           H   tau(   1) = (   0.0000000   0.0000000   0.0000000  )
         2           Si  tau(   2) = (   0.0000000   0.0000000   0.3858000  )
         3           Si  tau(   3) = (   0.0000000   0.5767560   0.5709840  )
         4           H   tau(   4) = (   0.0000000   0.5767560   0.9567840  )

     number of k points=    43  Methfessel-Paxton smearing, width (Ry)=  0.0100
                       cart. coord. in units 2pi/alat
        k(    1) = (   0.0000000   0.0000000   0.0000000), wk =   0.0138889
        k(    2) = (  -0.0833333   0.0481139   0.0000000), wk =   0.0555556
        k(    3) = (  -0.1666667   0.0962279   0.0000000), wk =   0.0555556
        k(    4) = (  -0.2500000   0.1443418   0.0000000), wk =   0.0555556
        k(    5) = (  -0.3333333   0.1924557   0.0000000), wk =   0.0555556
        k(    6) = (  -0.4166667   0.2405697   0.0000000), wk =   0.0555556
        k(    7) = (   0.5000000  -0.2886836   0.0000000), wk =   0.0277778
        k(    8) = (   0.0000000   0.0962279   0.0000000), wk =   0.0277778
        k(    9) = (  -0.0833333   0.1443418   0.0000000), wk =   0.0555556
        k(   10) = (  -0.1666667   0.1924557   0.0000000), wk =   0.0555556
        k(   11) = (  -0.2500000   0.2405697   0.0000000), wk =   0.0555556
        k(   12) = (  -0.3333333   0.2886836   0.0000000), wk =   0.0555556
        k(   13) = (   0.5833333  -0.2405697   0.0000000), wk =   0.0555556
        k(   14) = (   0.5000000  -0.1924557   0.0000000), wk =   0.0555556
        k(   15) = (   0.4166667  -0.1443418   0.0000000), wk =   0.0555556
        k(   16) = (   0.3333333  -0.0962279   0.0000000), wk =   0.0555556
        k(   17) = (   0.2500000  -0.0481139   0.0000000), wk =   0.0555556
        k(   18) = (   0.1666667  -0.0000000   0.0000000), wk =   0.0277778
        k(   19) = (   0.0000000   0.1924557   0.0000000), wk =   0.0277778
        k(   20) = (  -0.0833333   0.2405697   0.0000000), wk =   0.0555556
        k(   21) = (  -0.1666667   0.2886836   0.0000000), wk =   0.0555556
        k(   22) = (  -0.2500000   0.3367975   0.0000000), wk =   0.0555556
        k(   23) = (   0.6666667  -0.1924557   0.0000000), wk =   0.0555556
        k(   24) = (   0.5833333  -0.1443418   0.0000000), wk =   0.0555556
        k(   25) = (   0.5000000  -0.0962279   0.0000000), wk =   0.0555556
        k(   26) = (   0.4166667  -0.0481139   0.0000000), wk =   0.0555556
        k(   27) = (   0.3333333   0.0000000   0.0000000), wk =   0.0277778
        k(   28) = (   0.0000000   0.2886836   0.0000000), wk =   0.0277778
        k(   29) = (  -0.0833333   0.3367975   0.0000000), wk =   0.0555556
        k(   30) = (  -0.1666667   0.3849115   0.0000000), wk =   0.0555556
        k(   31) = (   0.7500000  -0.1443418   0.0000000), wk =   0.0555556
        k(   32) = (   0.6666667  -0.0962279   0.0000000), wk =   0.0555556
        k(   33) = (   0.5833333  -0.0481139   0.0000000), wk =   0.0555556
        k(   34) = (   0.5000000   0.0000000   0.0000000), wk =   0.0277778
        k(   35) = (   0.0000000   0.3849115   0.0000000), wk =   0.0277778
        k(   36) = (  -0.0833333   0.4330254   0.0000000), wk =   0.0555556
        k(   37) = (   0.8333333  -0.0962279   0.0000000), wk =   0.0555556
        k(   38) = (   0.7500000  -0.0481139   0.0000000), wk =   0.0555556
        k(   39) = (   0.6666667  -0.0000000   0.0000000), wk =   0.0277778
        k(   40) = (   0.0000000   0.4811393   0.0000000), wk =   0.0277778
        k(   41) = (   0.9166667  -0.0481139   0.0000000), wk =   0.0555556
        k(   42) = (   0.8333333   0.0000000   0.0000000), wk =   0.0277778
        k(   43) = (   0.0000000  -0.5773672   0.0000000), wk =   0.0138889

     Dense  grid:    90535 G-vectors     FFT dimensions: (  36,  36, 180)

     Smooth grid:    49301 G-vectors     FFT dimensions: (  27,  27, 144)

     Estimated max dynamical RAM per process >     359.23 MB

     Initial potential from superposition of free atoms

     starting charge    9.99886, renormalised to   10.00000

     negative rho (up, down):  1.007E-04 0.000E+00
     Starting wfcs are   10 randomized atomic wfcs
     Checking if some PAW data can be deallocated... 

     total cpu time spent up to now is        3.7 secs

     Self-consistent Calculation

     iteration #  1     ecut=    35.00 Ry     beta= 0.70
     Davidson diagonalization with overlap
     ethr =  1.00E-02,  avg # of iterations =  3.3

     negative rho (up, down):  8.322E-05 0.000E+00

     total cpu time spent up to now is       10.6 secs

     total energy              =     -25.15096686 Ry
     estimated scf accuracy    <       0.16562330 Ry

     iteration #  2     ecut=    35.00 Ry     beta= 0.70
     Davidson diagonalization with overlap
     ethr =  1.66E-03,  avg # of iterations =  1.6

     negative rho (up, down):  9.813E-05 0.000E+00

     total cpu time spent up to now is       15.7 secs

     total energy              =     -25.16087621 Ry
     estimated scf accuracy    <       0.00462740 Ry

     iteration #  3     ecut=    35.00 Ry     beta= 0.70
     Davidson diagonalization with overlap
     ethr =  4.63E-05,  avg # of iterations =  8.3

     negative rho (up, down):  9.988E-05 0.000E+00

     total cpu time spent up to now is       24.3 secs

     total energy              =     -25.16167338 Ry
     estimated scf accuracy    <       0.00025557 Ry

     iteration #  4     ecut=    35.00 Ry     beta= 0.70
     Davidson diagonalization with overlap
     ethr =  2.56E-06,  avg # of iterations =  5.4

     negative rho (up, down):  1.031E-04 0.000E+00

     total cpu time spent up to now is       31.1 secs

     total energy              =     -25.16171608 Ry
     estimated scf accuracy    <       0.00002344 Ry

     iteration #  5     ecut=    35.00 Ry     beta= 0.70
     Davidson diagonalization with overlap
     ethr =  2.34E-07,  avg # of iterations =  1.6

     negative rho (up, down):  1.032E-04 0.000E+00

     total cpu time spent up to now is       36.3 secs

     total energy              =     -25.16171899 Ry
     estimated scf accuracy    <       0.00000101 Ry

     iteration #  6     ecut=    35.00 Ry     beta= 0.70
     Davidson diagonalization with overlap
     ethr =  1.01E-08,  avg # of iterations =  2.2

     negative rho (up, down):  1.034E-04 0.000E+00

     total cpu time spent up to now is       42.0 secs

     End of self-consistent calculation

          k = 0.0000 0.0000 0.0000 (  6083 PWs)   bands (ev):

   -13.7015  -9.1407  -5.8740  -3.3859  -3.3700  -1.0426   0.5417   0.5586
     0.7950

          k =-0.0833 0.0481 0.0000 (  6100 PWs)   bands (ev):

   -13.6256  -9.1204  -5.8724  -3.9954  -3.5320  -0.6055   0.4965   0.8394
     0.9147

          k =-0.1667 0.0962 0.0000 (  6162 PWs)   bands (ev):

   -13.4004  -9.0828  -5.8814  -5.0761  -3.8729  -0.5111   0.7819   1.3297
     1.5585

          k =-0.2500 0.1443 0.0000 (  6174 PWs)   bands (ev):

   -13.0345  -9.1147  -6.1367  -5.8344  -4.2398  -0.8056   1.1169   1.3866
     2.1687

          k =-0.3333 0.1925 0.0000 (  6192 PWs)   bands (ev):

   -12.5499  -9.3764  -6.7273  -5.9382  -4.5395  -1.0439   0.8934   1.3347
     2.9420

          k =-0.4167 0.2406 0.0000 (  6182 PWs)   bands (ev):

   -12.0142  -9.8830  -6.9300  -6.0379  -4.7305  -1.1615   0.4599   1.3524
     3.0392

          k = 0.5000-0.2887 0.0000 (  6174 PWs)   bands (ev):

   -11.7041 -10.2131  -6.9472  -6.0903  -4.7958  -1.1907   0.2947   1.3374
     3.0350

          k = 0.0000 0.0962 0.0000 (  6100 PWs)   bands (ev):

   -13.6256  -9.1205  -5.8725  -4.0049  -3.5213  -0.6055   0.5055   0.8279
     0.9150

          k =-0.0833 0.1443 0.0000 (  6117 PWs)   bands (ev):

   -13.4749  -9.0910  -5.8750  -4.7547  -3.8424  -0.1767   0.4019   1.0046
     1.6074

          k =-0.1667 0.1925 0.0000 (  6152 PWs)   bands (ev):

   -13.1787  -9.0836  -5.9137  -5.6582  -4.3037  -0.2055   0.7995   1.3660
     1.6763

          k =-0.2500 0.2406 0.0000 (  6171 PWs)   bands (ev):

   -12.7506  -9.2240  -6.4566  -5.9233  -4.6995  -0.4680   1.1440   1.3073
     2.0914

          k =-0.3333 0.2887 0.0000 (  6193 PWs)   bands (ev):

   -12.2267  -9.6331  -6.8292  -6.0134  -4.9751  -0.6230   0.7297   1.3329
     2.4671

          k = 0.5833-0.2406 0.0000 (  6190 PWs)   bands (ev):

   -11.7398 -10.1306  -6.9114  -6.0897  -5.1183  -0.6659   0.3868   1.3545
     2.5928

          k = 0.5000-0.1925 0.0000 (  6192 PWs)   bands (ev):

   -11.7403 -10.1298  -6.9116  -6.0891  -5.1192  -0.6654   0.3865   1.3546
     2.5923

          k = 0.4167-0.1443 0.0000 (  6191 PWs)   bands (ev):

   -12.2274  -9.6317  -6.8290  -6.0121  -4.9778  -0.6219   0.7295   1.3328
     2.4652

          k = 0.3333-0.0962 0.0000 (  6171 PWs)   bands (ev):

   -12.7511  -9.2228  -6.4550  -5.9218  -4.7041  -0.4666   1.1452   1.3059
     2.0884

          k = 0.2500-0.0481 0.0000 (  6152 PWs)   bands (ev):

   -13.1791  -9.0830  -5.9133  -5.6528  -4.3111  -0.2030   0.7947   1.3683
     1.6728

          k = 0.1667-0.0000 0.0000 (  6117 PWs)   bands (ev):

   -13.4751  -9.0907  -5.8747  -4.7456  -3.8537  -0.1730   0.3914   1.0071
     1.6158

          k = 0.0000 0.1925 0.0000 (  6158 PWs)   bands (ev):

   -13.4001  -9.0831  -5.8820  -5.0831  -3.8643  -0.5055   0.7827   1.3291
     1.5496

          k =-0.0833 0.2406 0.0000 (  6152 PWs)   bands (ev):

   -13.1784  -9.0840  -5.9150  -5.6602  -4.3004  -0.1986   0.7960   1.3654
     1.6727

          k =-0.1667 0.2887 0.0000 (  6189 PWs)   bands (ev):

   -12.8183  -9.1762  -6.2243  -5.9720  -4.9179   0.5357   0.6274   1.6571
     1.7001

          k =-0.2500 0.3368 0.0000 (  6191 PWs)   bands (ev):

   -12.3401  -9.4751  -6.6035  -6.0843  -5.3780   0.3984   1.0849   1.3728
     2.0289

          k = 0.6667-0.1925 0.0000 (  6186 PWs)   bands (ev):

   -11.8034  -9.9678  -6.7783  -6.1468  -5.6587   0.3537   0.8494   1.2970
     2.0326

          k = 0.5833-0.1443 0.0000 (  6185 PWs)   bands (ev):

   -11.4765 -10.2981  -6.8231  -6.1399  -5.7759   0.4620   0.5345   1.4020
     1.9469

          k = 0.5000-0.0962 0.0000 (  6186 PWs)   bands (ev):

   -11.8050  -9.9650  -6.7786  -6.1441  -5.6626   0.3559   0.8472   1.2968
     2.0321

          k = 0.4167-0.0481 0.0000 (  6191 PWs)   bands (ev):

   -12.3416  -9.4720  -6.6016  -6.0819  -5.3846   0.4005   1.0853   1.3703
     2.0275

          k = 0.3333 0.0000 0.0000 (  6189 PWs)   bands (ev):

   -12.8194  -9.1742  -6.2181  -5.9708  -4.9275   0.5406   0.6201   1.6602
     1.6985

          k = 0.0000 0.2887 0.0000 (  6174 PWs)   bands (ev):

   -13.0336  -9.1161  -6.1419  -5.8353  -4.2327  -0.7990   1.1169   1.3858
     2.4077

          k =-0.0833 0.3368 0.0000 (  6171 PWs)   bands (ev):

   -12.7496  -9.2257  -6.4602  -5.9233  -4.6954  -0.4611   1.1447   1.3052
     2.0891

          k =-0.1667 0.3849 0.0000 (  6189 PWs)   bands (ev):

   -12.3393  -9.4767  -6.6054  -6.0836  -5.3762   0.4035   1.0836   1.3737
     2.0286

          k = 0.7500-0.1443 0.0000 (  6185 PWs)   bands (ev):

   -11.8312  -9.8877  -6.5769  -6.3666  -5.8412   0.7603   1.0527   1.8207
     2.1742

          k = 0.6667-0.0962 0.0000 (  6181 PWs)   bands (ev):

   -11.3171 -10.3638  -6.6727  -6.3518  -6.1186   0.6421   1.2960   1.5687
     2.0974

          k = 0.5833-0.0481 0.0000 (  6181 PWs)   bands (ev):

   -11.3198 -10.3601  -6.6734  -6.3497  -6.1210   0.6426   1.2965   1.5666
     2.0975

          k = 0.5000 0.0000 0.0000 (  6185 PWs)   bands (ev):

   -11.8342  -9.8823  -6.5752  -6.3662  -5.8461   0.7617   1.0524   1.8171
     2.1658

          k = 0.0000 0.3849 0.0000 (  6192 PWs)   bands (ev):

   -12.5479  -9.3803  -6.7302  -5.9396  -4.5334  -1.0375   0.8939   1.3330
     2.9403

          k =-0.0833 0.4330 0.0000 (  6191 PWs)   bands (ev):

   -12.2242  -9.6380  -6.8307  -6.0145  -4.9707  -0.6164   0.7308   1.3305
     2.4668

          k = 0.8333-0.0962 0.0000 (  6186 PWs)   bands (ev):

   -11.8003  -9.9731  -6.7792  -6.1469  -5.6559   0.3586   0.8520   1.2944
     2.0328

          k = 0.7500-0.0481 0.0000 (  6181 PWs)   bands (ev):

   -11.3134 -10.3688  -6.6738  -6.3492  -6.1190   0.6431   1.2953   1.5685
     2.1027

          k = 0.6667-0.0000 0.0000 (  6183 PWs)   bands (ev):

   -10.8251 -10.8158  -6.6789  -6.3339  -6.3323   0.6924   1.3565   1.3573
     3.9122

          k = 0.0000 0.4811 0.0000 (  6184 PWs)   bands (ev):

   -12.0098  -9.8909  -6.9302  -6.0403  -4.7250  -1.1552   0.4614   1.3494
     3.0392

          k = 0.9167-0.0481 0.0000 (  6190 PWs)   bands (ev):

   -11.7337 -10.1402  -6.9110  -6.0922  -5.1134  -0.6595   0.3884   1.3513
     2.5932

          k = 0.8333 0.0000 0.0000 (  6185 PWs)   bands (ev):

   -11.4691 -10.3087  -6.8228  -6.1424  -5.7708   0.4635   0.5408   1.3988
     1.9477

          k = 0.0000-0.5774 0.0000 (  6174 PWs)   bands (ev):

   -11.6965 -10.2245  -6.9463  -6.0934  -4.7904  -1.1845   0.2965   1.3339
     3.0354

     the Fermi energy is    -2.6249 ev

!    total energy              =     -25.16171919 Ry
     estimated scf accuracy    <       0.00000016 Ry
     smearing contrib. (-TS)   =       0.00000000 Ry
     internal energy E=F+TS    =     -25.16171919 Ry

     The total energy is F=E-TS. E is the sum of the following terms:
     one-electron contribution =    -110.88988968 Ry
     hartree contribution      =      56.76086781 Ry
     xc contribution           =     -13.64700951 Ry
     ewald contribution        =      42.61459434 Ry
     one-center paw contrib.   =      -0.00028215 Ry

     convergence has been achieved in   6 iterations

     Writing output data file /home/jesus/Documentos/Nanociencia_DFT/silicano.save/
 
     init_run     :      2.76s CPU      2.96s WALL (       1 calls)
     electrons    :     36.73s CPU     38.25s WALL (       1 calls)

     Called by init_run:
     wfcinit      :      1.61s CPU      1.62s WALL (       1 calls)
     potinit      :      0.31s CPU      0.33s WALL (       1 calls)
     hinit0       :      0.54s CPU      0.58s WALL (       1 calls)

     Called by electrons:
     c_bands      :     28.81s CPU     28.87s WALL (       6 calls)
     sum_band     :      5.94s CPU      6.59s WALL (       6 calls)
     v_of_rho     :      0.71s CPU      0.75s WALL (       7 calls)
     newd         :      1.47s CPU      2.36s WALL (       7 calls)
     PAW_pot      :      0.01s CPU      0.01s WALL (       7 calls)
     mix_rho      :      0.08s CPU      0.08s WALL (       6 calls)

     Called by c_bands:
     init_us_2    :      1.15s CPU      1.16s WALL (     559 calls)
     cegterg      :     23.89s CPU     23.95s WALL (     258 calls)

     Called by *egterg:
     cdiaghg      :      0.18s CPU      0.18s WALL (    1219 calls)
     h_psi        :     21.87s CPU     21.92s WALL (    1262 calls)
     s_psi        :      0.91s CPU      0.92s WALL (    1262 calls)
     g_psi        :      0.10s CPU      0.10s WALL (     961 calls)

     Called by h_psi:
     h_psi:calbec :      1.00s CPU      1.00s WALL (    1262 calls)
     vloc_psi     :     19.84s CPU     19.89s WALL (    1262 calls)
     add_vuspsi   :      0.92s CPU      0.92s WALL (    1262 calls)

     General routines
     calbec       :      1.27s CPU      1.27s WALL (    1520 calls)
     fft          :      0.27s CPU      0.28s WALL (      89 calls)
     ffts         :      0.02s CPU      0.02s WALL (      13 calls)
     fftw         :     20.35s CPU     20.41s WALL (   16954 calls)
     interpolate  :      0.04s CPU      0.04s WALL (       7 calls)
 
     Parallel routines
 
     PWSCF        :     40.31s CPU     42.15s WALL

 
   This run was terminated on:  15: 9:15  31Mar2021            

=------------------------------------------------------------------------------=
   JOB DONE.
=------------------------------------------------------------------------------=
