
     Program PWSCF v.6.6 starts on 31Mar2021 at 15: 9:56 

     This program is part of the open-source Quantum ESPRESSO suite
     for quantum simulation of materials; please cite
         "P. Giannozzi et al., J. Phys.:Condens. Matter 21 395502 (2009);
         "P. Giannozzi et al., J. Phys.:Condens. Matter 29 465901 (2017);
          URL http://www.quantum-espresso.org", 
     in publications or presentations arising from this work. More details at
     http://www.quantum-espresso.org/quote

     Parallel version (MPI), running on     1 processors

     MPI processes distributed on     1 nodes
     Fft bands division:     nmany     =       1
     Waiting for input...
     Reading input from standard input
Warning: card &CELL ignored
Warning: card   CELL_DYNAMICS='BFGS', ignored
Warning: card   CELL_DOFREE='ALL', ignored
Warning: card / ignored

     Current dimensions of program PWSCF are:
     Max number of different atomic species (ntypx) = 10
     Max number of k-points (npk) =  40000
     Max angular momentum in pseudopotentials (lmaxx) =  3
     file H.pbe-kjpaw_psl.1.0.0.UPF: wavefunction(s)  1S renormalized

     Subspace diagonalization in iterative solution of the eigenvalue problem:
     a serial algorithm will be used

     Message from routine setup:
     using ibrav=0 with symmetry is DISCOURAGED, use correct ibrav instead
 
     G-vector sticks info
     --------------------
     sticks:   dense  smooth     PW     G-vecs:    dense   smooth      PW
     Sum         769     511    163                90535    49301    8991
 


     bravais-lattice index     =            0
     lattice parameter (alat)  =       7.3457  a.u.
     unit-cell volume          =    1765.6965 (a.u.)^3
     number of atoms/cell      =            4
     number of atomic types    =            2
     number of electrons       =        10.00
     number of Kohn-Sham states=            9
     kinetic-energy cutoff     =      35.0000  Ry
     charge density cutoff     =     210.0000  Ry
     convergence threshold     =      1.0E-06
     mixing beta               =       0.7000
     number of iterations used =            8  plain     mixing
     Exchange-correlation= SLA PW PBX PBC
                           (   1   4   3   4   0   0   0)

     celldm(1)=   7.345687  celldm(2)=   0.000000  celldm(3)=   0.000000
     celldm(4)=   0.000000  celldm(5)=   0.000000  celldm(6)=   0.000000

     crystal axes: (cart. coord. in units of alat)
               a(1) = (   0.500000   0.866000   0.000000 )  
               a(2) = (  -0.500000   0.866000   0.000000 )  
               a(3) = (   0.000000   0.000000   5.144000 )  

     reciprocal axes: (cart. coord. in units 2 pi/alat)
               b(1) = (  1.000000  0.577367  0.000000 )  
               b(2) = ( -1.000000  0.577367  0.000000 )  
               b(3) = (  0.000000  0.000000  0.194401 )  


     PseudoPot. # 1 for Si read from file:
     /home/jesus/Nanociencia_DFT/pseudopotenciales/Si.pbe-n-rrkjus_psl.1.0.0.UPF
     MD5 check sum: fa25574f73a70a4139f2adfbefec430c
     Pseudo is Ultrasoft + core correction, Zval =  4.0
     Generated using "atomic" code by A. Dal Corso v.6.3
     Using radial grid of 1141 points,  6 beta functions with: 
                l(1) =   0
                l(2) =   0
                l(3) =   1
                l(4) =   1
                l(5) =   2
                l(6) =   2
     Q(r) pseudized with 0 coefficients 


     PseudoPot. # 2 for H  read from file:
     /home/jesus/Nanociencia_DFT/pseudopotenciales/H.pbe-kjpaw_psl.1.0.0.UPF
     MD5 check sum: d81a744832360e4a8af0b0b5b123bc2a
     Pseudo is Projector augmented-wave, Zval =  1.0
     Generated using "atomic" code by A. Dal Corso v.6.3MaX
     Shape of augmentation charge: PSQ
     Using radial grid of  929 points,  2 beta functions with: 
                l(1) =   0
                l(2) =   0
     Q(r) pseudized with 0 coefficients 


     atomic species   valence    mass     pseudopotential
        Si             4.00    28.08550     Si( 1.00)
        H              1.00     1.00800     H ( 1.00)

      2 Sym. Ops. (no inversion) found



   Cartesian axes

     site n.     atom                  positions (alat units)
         1           H   tau(   1) = (   0.0000000   0.0000000   0.0000000  )
         2           Si  tau(   2) = (   0.0000000   0.0000000   0.3858000  )
         3           Si  tau(   3) = (   0.0000000   0.5767560   0.5709840  )
         4           H   tau(   4) = (   0.0000000   0.5767560   0.9567840  )

     number of k points=    57  Methfessel-Paxton smearing, width (Ry)=  0.0100
                       cart. coord. in units 2pi/alat
        k(    1) = (   0.0000000   0.0000000   0.0000000), wk =   0.0102041
        k(    2) = (  -0.0714286   0.0412405   0.0000000), wk =   0.0408163
        k(    3) = (  -0.1428571   0.0824810   0.0000000), wk =   0.0408163
        k(    4) = (  -0.2142857   0.1237215   0.0000000), wk =   0.0408163
        k(    5) = (  -0.2857143   0.1649621   0.0000000), wk =   0.0408163
        k(    6) = (  -0.3571429   0.2062026   0.0000000), wk =   0.0408163
        k(    7) = (  -0.4285714   0.2474431   0.0000000), wk =   0.0408163
        k(    8) = (   0.5000000  -0.2886836   0.0000000), wk =   0.0204082
        k(    9) = (   0.0000000   0.0824810   0.0000000), wk =   0.0204082
        k(   10) = (  -0.0714286   0.1237215   0.0000000), wk =   0.0408163
        k(   11) = (  -0.1428571   0.1649621   0.0000000), wk =   0.0408163
        k(   12) = (  -0.2142857   0.2062026   0.0000000), wk =   0.0408163
        k(   13) = (  -0.2857143   0.2474431   0.0000000), wk =   0.0408163
        k(   14) = (  -0.3571429   0.2886836   0.0000000), wk =   0.0408163
        k(   15) = (   0.5714286  -0.2474431   0.0000000), wk =   0.0408163
        k(   16) = (   0.5000000  -0.2062026   0.0000000), wk =   0.0408163
        k(   17) = (   0.4285714  -0.1649621   0.0000000), wk =   0.0408163
        k(   18) = (   0.3571429  -0.1237215   0.0000000), wk =   0.0408163
        k(   19) = (   0.2857143  -0.0824810   0.0000000), wk =   0.0408163
        k(   20) = (   0.2142857  -0.0412405   0.0000000), wk =   0.0408163
        k(   21) = (   0.1428571   0.0000000   0.0000000), wk =   0.0204082
        k(   22) = (   0.0000000   0.1649621   0.0000000), wk =   0.0204082
        k(   23) = (  -0.0714286   0.2062026   0.0000000), wk =   0.0408163
        k(   24) = (  -0.1428571   0.2474431   0.0000000), wk =   0.0408163
        k(   25) = (  -0.2142857   0.2886836   0.0000000), wk =   0.0408163
        k(   26) = (  -0.2857143   0.3299241   0.0000000), wk =   0.0408163
        k(   27) = (   0.6428571  -0.2062026   0.0000000), wk =   0.0408163
        k(   28) = (   0.5714286  -0.1649621   0.0000000), wk =   0.0408163
        k(   29) = (   0.5000000  -0.1237215   0.0000000), wk =   0.0408163
        k(   30) = (   0.4285714  -0.0824810   0.0000000), wk =   0.0408163
        k(   31) = (   0.3571429  -0.0412405   0.0000000), wk =   0.0408163
        k(   32) = (   0.2857143  -0.0000000   0.0000000), wk =   0.0204082
        k(   33) = (   0.0000000   0.2474431   0.0000000), wk =   0.0204082
        k(   34) = (  -0.0714286   0.2886836   0.0000000), wk =   0.0408163
        k(   35) = (  -0.1428571   0.3299241   0.0000000), wk =   0.0408163
        k(   36) = (  -0.2142857   0.3711646   0.0000000), wk =   0.0408163
        k(   37) = (   0.7142857  -0.1649621   0.0000000), wk =   0.0408163
        k(   38) = (   0.6428571  -0.1237215   0.0000000), wk =   0.0408163
        k(   39) = (   0.5714286  -0.0824810   0.0000000), wk =   0.0408163
        k(   40) = (   0.5000000  -0.0412405   0.0000000), wk =   0.0408163
        k(   41) = (   0.4285714  -0.0000000   0.0000000), wk =   0.0204082
        k(   42) = (   0.0000000   0.3299241   0.0000000), wk =   0.0204082
        k(   43) = (  -0.0714286   0.3711646   0.0000000), wk =   0.0408163
        k(   44) = (  -0.1428571   0.4124051   0.0000000), wk =   0.0408163
        k(   45) = (   0.7857143  -0.1237215   0.0000000), wk =   0.0408163
        k(   46) = (   0.7142857  -0.0824810   0.0000000), wk =   0.0408163
        k(   47) = (   0.6428571  -0.0412405   0.0000000), wk =   0.0408163
        k(   48) = (   0.5714286   0.0000000   0.0000000), wk =   0.0204082
        k(   49) = (   0.0000000   0.4124051   0.0000000), wk =   0.0204082
        k(   50) = (  -0.0714286   0.4536457   0.0000000), wk =   0.0408163
        k(   51) = (   0.8571429  -0.0824810   0.0000000), wk =   0.0408163
        k(   52) = (   0.7857143  -0.0412405   0.0000000), wk =   0.0408163
        k(   53) = (   0.7142857   0.0000000   0.0000000), wk =   0.0204082
        k(   54) = (   0.0000000   0.4948862   0.0000000), wk =   0.0204082
        k(   55) = (   0.9285714  -0.0412405   0.0000000), wk =   0.0408163
        k(   56) = (   0.8571429  -0.0000000   0.0000000), wk =   0.0204082
        k(   57) = (   0.0000000  -0.5773672   0.0000000), wk =   0.0102041

     Dense  grid:    90535 G-vectors     FFT dimensions: (  36,  36, 180)

     Smooth grid:    49301 G-vectors     FFT dimensions: (  27,  27, 144)

     Estimated max dynamical RAM per process >     371.10 MB

     Initial potential from superposition of free atoms

     starting charge    9.99886, renormalised to   10.00000

     negative rho (up, down):  1.007E-04 0.000E+00
     Starting wfcs are   10 randomized atomic wfcs
     Checking if some PAW data can be deallocated... 

     total cpu time spent up to now is        4.4 secs

     Self-consistent Calculation

     iteration #  1     ecut=    35.00 Ry     beta= 0.70
     Davidson diagonalization with overlap
     ethr =  1.00E-02,  avg # of iterations =  3.6

     negative rho (up, down):  8.253E-05 0.000E+00

     total cpu time spent up to now is       13.3 secs

     total energy              =     -25.15095132 Ry
     estimated scf accuracy    <       0.16571723 Ry

     iteration #  2     ecut=    35.00 Ry     beta= 0.70
     Davidson diagonalization with overlap
     ethr =  1.66E-03,  avg # of iterations =  1.3

     negative rho (up, down):  9.794E-05 0.000E+00

     total cpu time spent up to now is       19.7 secs

     total energy              =     -25.16088589 Ry
     estimated scf accuracy    <       0.00461294 Ry

     iteration #  3     ecut=    35.00 Ry     beta= 0.70
     Davidson diagonalization with overlap
     ethr =  4.61E-05,  avg # of iterations =  8.9

     negative rho (up, down):  1.003E-04 0.000E+00

     total cpu time spent up to now is       31.1 secs

     total energy              =     -25.16166811 Ry
     estimated scf accuracy    <       0.00025451 Ry

     iteration #  4     ecut=    35.00 Ry     beta= 0.70
     Davidson diagonalization with overlap
     ethr =  2.55E-06,  avg # of iterations =  5.9

     negative rho (up, down):  1.032E-04 0.000E+00

     total cpu time spent up to now is       40.2 secs

     total energy              =     -25.16171034 Ry
     estimated scf accuracy    <       0.00002372 Ry

     iteration #  5     ecut=    35.00 Ry     beta= 0.70
     Davidson diagonalization with overlap
     ethr =  2.37E-07,  avg # of iterations =  1.8

     negative rho (up, down):  1.032E-04 0.000E+00

     total cpu time spent up to now is       46.9 secs

     total energy              =     -25.16171333 Ry
     estimated scf accuracy    <       0.00000123 Ry

     iteration #  6     ecut=    35.00 Ry     beta= 0.70
     Davidson diagonalization with overlap
     ethr =  1.23E-08,  avg # of iterations =  2.1

     negative rho (up, down):  1.034E-04 0.000E+00

     total cpu time spent up to now is       54.0 secs

     End of self-consistent calculation

          k = 0.0000 0.0000 0.0000 (  6083 PWs)   bands (ev):

   -13.7031  -9.1429  -5.8759  -3.3873  -3.3717  -1.0437   0.5403   0.5571
     0.7945

          k =-0.0714 0.0412 0.0000 (  6118 PWs)   bands (ev):

   -13.6474  -9.1277  -5.8746  -3.8570  -3.4959  -0.6859   0.4948   0.7651
     0.8798

          k =-0.1429 0.0825 0.0000 (  6144 PWs)   bands (ev):

   -13.4813  -9.0940  -5.8774  -4.7668  -3.7683  -0.4615   0.6691   1.2004
     1.3224

          k =-0.2143 0.1237 0.0000 (  6168 PWs)   bands (ev):

   -13.2093  -9.0854  -5.9309  -5.6355  -4.0884  -0.6765   0.9874   1.4432
     2.0545

          k =-0.2857 0.1650 0.0000 (  6174 PWs)   bands (ev):

   -12.8408  -9.1920  -6.4346  -5.8874  -4.3811  -0.9231   1.1531   1.2828
     2.2814

          k =-0.3571 0.2062 0.0000 (  6186 PWs)   bands (ev):

   -12.3982  -9.5078  -6.8221  -5.9684  -4.6076  -1.0905   0.7501   1.3498
     2.9958

          k =-0.4286 0.2474 0.0000 (  6174 PWs)   bands (ev):

   -11.9459  -9.9588  -6.9392  -6.0523  -4.7492  -1.1710   0.4158   1.3482
     3.0378

          k = 0.5000-0.2887 0.0000 (  6174 PWs)   bands (ev):

   -11.7058 -10.2150  -6.9489  -6.0922  -4.7972  -1.1918   0.2933   1.3362
     3.0333

          k = 0.0000 0.0825 0.0000 (  6118 PWs)   bands (ev):

   -13.6473  -9.1278  -5.8747  -3.8666  -3.4852  -0.6865   0.5049   0.7533
     0.8800

          k =-0.0714 0.1237 0.0000 (  6119 PWs)   bands (ev):

   -13.5363  -9.1031  -5.8750  -4.4959  -3.7247  -0.3024   0.4142   0.9366
     1.3515

          k =-0.1429 0.1650 0.0000 (  6156 PWs)   bands (ev):

   -13.3170  -9.0802  -5.8897  -5.3151  -4.0956  -0.2221   0.6635   1.2228
     1.5977

          k =-0.2143 0.2062 0.0000 (  6159 PWs)   bands (ev):

   -12.9958  -9.1240  -6.1348  -5.8667  -4.4536  -0.4581   1.0568   1.4268
     1.9047

          k =-0.2857 0.2474 0.0000 (  6185 PWs)   bands (ev):

   -12.5870  -9.3361  -6.6448  -5.9476  -4.7417  -0.6563   1.0230   1.2975
     2.2825

          k =-0.3571 0.2887 0.0000 (  6191 PWs)   bands (ev):

   -12.1262  -9.7438  -6.8754  -6.0285  -4.9413  -0.7632   0.6130   1.3448
     2.5909

          k = 0.5714-0.2474 0.0000 (  6198 PWs)   bands (ev):

   -11.7330 -10.1528  -6.9232  -6.0911  -5.0443  -0.7959   0.3600   1.3503
     2.6834

          k = 0.5000-0.2062 0.0000 (  6198 PWs)   bands (ev):

   -11.7333 -10.1523  -6.9233  -6.0907  -5.0449  -0.7955   0.3597   1.3504
     2.6829

          k = 0.4286-0.1650 0.0000 (  6191 PWs)   bands (ev):

   -12.1267  -9.7426  -6.8755  -6.0275  -4.9432  -0.7624   0.6127   1.3447
     2.5894

          k = 0.3571-0.1237 0.0000 (  6185 PWs)   bands (ev):

   -12.5875  -9.3350  -6.6440  -5.9464  -4.7450  -0.6551   1.0238   1.2964
     2.2804

          k = 0.2857-0.0825 0.0000 (  6159 PWs)   bands (ev):

   -12.9962  -9.1233  -6.1329  -5.8650  -4.4585  -0.4565   1.0554   1.4284
     1.8996

          k = 0.2143-0.0412 0.0000 (  6154 PWs)   bands (ev):

   -13.3173  -9.0798  -5.8894  -5.3094  -4.1032  -0.2191   0.6570   1.2241
     1.5955

          k = 0.1429 0.0000 0.0000 (  6119 PWs)   bands (ev):

   -13.5365  -9.1029  -5.8748  -4.4866  -3.7359  -0.2993   0.4035   0.9397
     1.3598

          k = 0.0000 0.1650 0.0000 (  6144 PWs)   bands (ev):

   -13.4811  -9.0942  -5.8778  -4.7744  -3.7593  -0.4571   0.6710   1.1988
     1.3128

          k =-0.0714 0.2062 0.0000 (  6156 PWs)   bands (ev):

   -13.3168  -9.0804  -5.8901  -5.3180  -4.0921  -0.2157   0.6597   1.2215
     1.5955

          k =-0.1429 0.2474 0.0000 (  6163 PWs)   bands (ev):

   -13.0478  -9.1054  -5.9244  -5.9026  -4.5938   0.3471   0.5106   1.4441
     1.6828

          k =-0.2143 0.2887 0.0000 (  6169 PWs)   bands (ev):

   -12.6833  -9.2483  -6.4031  -5.9879  -5.0277   0.2201   0.9775   1.5022
     1.8956

          k =-0.2857 0.3299 0.0000 (  6184 PWs)   bands (ev):

   -12.2439  -9.5744  -6.7102  -6.0645  -5.3323   0.0997   1.0367   1.2317
     2.1356

          k = 0.6429-0.2062 0.0000 (  6185 PWs)   bands (ev):

   -11.7884 -10.0148  -6.8308  -6.1153  -5.5236   0.0925   0.6262   1.3359
     2.1589

          k = 0.5714-0.1650 0.0000 (  6191 PWs)   bands (ev):

   -11.5382 -10.2719  -6.8562  -6.1275  -5.5953   0.1495   0.4188   1.3860
     2.1224

          k = 0.5000-0.1237 0.0000 (  6185 PWs)   bands (ev):

   -11.7896 -10.0127  -6.8311  -6.1134  -5.5264   0.0942   0.6247   1.3360
     2.1584

          k = 0.4286-0.0825 0.0000 (  6186 PWs)   bands (ev):

   -12.2451  -9.5719  -6.7095  -6.0622  -5.3373   0.1014   1.0372   1.2300
     2.1343

          k = 0.3571-0.0412 0.0000 (  6169 PWs)   bands (ev):

   -12.6843  -9.2463  -6.3996  -5.9860  -5.0352   0.2219   0.9762   1.5020
     1.8935

          k = 0.2857-0.0000 0.0000 (  6163 PWs)   bands (ev):

   -13.0485  -9.1042  -5.9234  -5.8955  -4.6037   0.3520   0.5020   1.4466
     1.6821

          k = 0.0000 0.2474 0.0000 (  6168 PWs)   bands (ev):

   -13.2087  -9.0862  -5.9330  -5.6401  -4.0809  -0.6702   0.9874   1.4429
     2.0474

          k =-0.0714 0.2887 0.0000 (  6159 PWs)   bands (ev):

   -12.9952  -9.1250  -6.1389  -5.8666  -4.4493  -0.4512   1.0556   1.4267
     1.8989

          k =-0.1429 0.3299 0.0000 (  6169 PWs)   bands (ev):

   -12.6828  -9.2492  -6.4052  -5.9873  -5.0259   0.2259   0.9754   1.5023
     1.8928

          k =-0.2143 0.3712 0.0000 (  6189 PWs)   bands (ev):

   -12.2841  -9.5108  -6.5585  -6.1575  -5.5085   0.7724   0.8863   1.8394
     1.9718

          k = 0.7143-0.1650 0.0000 (  6198 PWs)   bands (ev):

   -11.8279  -9.9050  -6.6492  -6.2859  -5.8162   0.6563   1.1401   1.5776
     1.9084

          k = 0.6429-0.1237 0.0000 (  6193 PWs)   bands (ev):

   -11.4128 -10.3055  -6.7403  -6.2275  -6.0328   0.5652   1.3084   1.4346
     1.7116

          k = 0.5714-0.0825 0.0000 (  6193 PWs)   bands (ev):

   -11.4145 -10.3031  -6.7408  -6.2247  -6.0359   0.5659   1.3103   1.4295
     1.7140

          k = 0.5000-0.0412 0.0000 (  6198 PWs)   bands (ev):

   -11.8302  -9.9008  -6.6491  -6.2835  -5.8208   0.6583   1.1398   1.5728
     1.9098

          k = 0.4286-0.0000 0.0000 (  6189 PWs)   bands (ev):

   -12.2861  -9.5068  -6.5551  -6.1563  -5.5159   0.7756   0.8834   1.8339
     1.9690

          k = 0.0000 0.3299 0.0000 (  6174 PWs)   bands (ev):

   -12.8396  -9.1942  -6.4391  -5.8883  -4.3746  -0.9168   1.1535   1.2814
     2.7011

          k =-0.0714 0.3712 0.0000 (  6185 PWs)   bands (ev):

   -12.5856  -9.3389  -6.6477  -5.9482  -4.7373  -0.6496   1.0240   1.2952
     2.2807

          k =-0.1429 0.4124 0.0000 (  6182 PWs)   bands (ev):

   -12.2424  -9.5773  -6.7120  -6.0644  -5.3296   0.1056   1.0388   1.2288
     2.1354

          k = 0.7857-0.1237 0.0000 (  6198 PWs)   bands (ev):

   -11.8267  -9.9072  -6.6506  -6.2845  -5.8155   0.6586   1.1385   1.5810
     1.9096

          k = 0.7143-0.0825 0.0000 (  6181 PWs)   bands (ev):

   -11.3718 -10.3047  -6.5717  -6.4934  -6.0944   0.6987   1.1998   1.5994
     2.6763

          k = 0.6429-0.0412 0.0000 (  6173 PWs)   bands (ev):

   -11.0501 -10.6056  -6.6789  -6.3572  -6.2628   0.6695   1.3666   1.3938
     2.7364

          k = 0.5714 0.0000 0.0000 (  6181 PWs)   bands (ev):

   -11.3761 -10.2986  -6.5718  -6.4931  -6.0964   0.6989   1.2001   1.5983
     2.6670

          k = 0.0000 0.4124 0.0000 (  6186 PWs)   bands (ev):

   -12.3958  -9.5126  -6.8241  -5.9700  -4.6019  -1.0843   0.7510   1.3478
     2.9949

          k =-0.0714 0.4536 0.0000 (  6191 PWs)   bands (ev):

   -12.1231  -9.7496  -6.8764  -6.0300  -4.9367  -0.7568   0.6143   1.3422
     2.5906

          k = 0.8571-0.0825 0.0000 (  6185 PWs)   bands (ev):

   -11.7845 -10.0213  -6.8312  -6.1164  -5.5199   0.0986   0.6277   1.3331
     2.1593

          k = 0.7857-0.0412 0.0000 (  6193 PWs)   bands (ev):

   -11.4078 -10.3126  -6.7408  -6.2266  -6.0314   0.5668   1.3116   1.4339
     1.7129

          k = 0.7143 0.0000 0.0000 (  6173 PWs)   bands (ev):

   -11.0431 -10.6137  -6.6793  -6.3541  -6.2645   0.6700   1.3675   1.3926
     2.7421

          k = 0.0000 0.4949 0.0000 (  6174 PWs)   bands (ev):

   -11.9410  -9.9671  -6.9391  -6.0549  -4.7438  -1.1649   0.4174   1.3452
     3.0380

          k = 0.9286-0.0412 0.0000 (  6198 PWs)   bands (ev):

   -11.7267 -10.1627  -6.9226  -6.0937  -5.0393  -0.7897   0.3617   1.3470
     2.6836

          k = 0.8571-0.0000 0.0000 (  6193 PWs)   bands (ev):

   -11.5309 -10.2825  -6.8556  -6.1302  -5.5902   0.1556   0.4205   1.3827
     2.1231

          k = 0.0000-0.5774 0.0000 (  6174 PWs)   bands (ev):

   -11.6984 -10.2262  -6.9480  -6.0953  -4.7920  -1.1858   0.2953   1.3327
     3.0337

     the Fermi energy is    -3.3018 ev

!    total energy              =     -25.16171343 Ry
     estimated scf accuracy    <       0.00000038 Ry
     smearing contrib. (-TS)   =       0.00002825 Ry
     internal energy E=F+TS    =     -25.16174168 Ry

     The total energy is F=E-TS. E is the sum of the following terms:
     one-electron contribution =    -110.89052295 Ry
     hartree contribution      =      56.76160030 Ry
     xc contribution           =     -13.64713123 Ry
     ewald contribution        =      42.61459434 Ry
     one-center paw contrib.   =      -0.00028215 Ry

     convergence has been achieved in   6 iterations

     Writing output data file /home/jesus/Documentos/Nanociencia_DFT/silicano.save/
 
     init_run     :      3.34s CPU      3.52s WALL (       1 calls)
     electrons    :     48.12s CPU     49.63s WALL (       1 calls)

     Called by init_run:
     wfcinit      :      2.15s CPU      2.17s WALL (       1 calls)
     potinit      :      0.30s CPU      0.32s WALL (       1 calls)
     hinit0       :      0.56s CPU      0.58s WALL (       1 calls)

     Called by electrons:
     c_bands      :     38.60s CPU     38.71s WALL (       6 calls)
     sum_band     :      7.48s CPU      8.12s WALL (       6 calls)
     v_of_rho     :      0.72s CPU      0.76s WALL (       7 calls)
     newd         :      1.52s CPU      2.36s WALL (       7 calls)
     PAW_pot      :      0.01s CPU      0.01s WALL (       7 calls)
     mix_rho      :      0.08s CPU      0.08s WALL (       6 calls)

     Called by c_bands:
     init_us_2    :      1.54s CPU      1.55s WALL (     741 calls)
     cegterg      :     32.08s CPU     32.18s WALL (     342 calls)

     Called by *egterg:
     cdiaghg      :      0.25s CPU      0.25s WALL (    1687 calls)
     h_psi        :     29.39s CPU     29.48s WALL (    1744 calls)
     s_psi        :      1.21s CPU      1.22s WALL (    1744 calls)
     g_psi        :      0.13s CPU      0.13s WALL (    1345 calls)

     Called by h_psi:
     h_psi:calbec :      1.36s CPU      1.36s WALL (    1744 calls)
     vloc_psi     :     26.65s CPU     26.73s WALL (    1744 calls)
     add_vuspsi   :      1.23s CPU      1.23s WALL (    1744 calls)

     General routines
     calbec       :      1.72s CPU      1.72s WALL (    2086 calls)
     fft          :      0.26s CPU      0.29s WALL (      89 calls)
     ffts         :      0.02s CPU      0.02s WALL (      13 calls)
     fftw         :     27.31s CPU     27.39s WALL (   22590 calls)
     interpolate  :      0.04s CPU      0.04s WALL (       7 calls)
 
     Parallel routines
 
     PWSCF        :     52.30s CPU     54.22s WALL

 
   This run was terminated on:  15:10:51  31Mar2021            

=------------------------------------------------------------------------------=
   JOB DONE.
=------------------------------------------------------------------------------=
