
     Program PWSCF v.6.6 starts on 31Mar2021 at 15:12:50 

     This program is part of the open-source Quantum ESPRESSO suite
     for quantum simulation of materials; please cite
         "P. Giannozzi et al., J. Phys.:Condens. Matter 21 395502 (2009);
         "P. Giannozzi et al., J. Phys.:Condens. Matter 29 465901 (2017);
          URL http://www.quantum-espresso.org", 
     in publications or presentations arising from this work. More details at
     http://www.quantum-espresso.org/quote

     Parallel version (MPI), running on     1 processors

     MPI processes distributed on     1 nodes
     Fft bands division:     nmany     =       1
     Waiting for input...
     Reading input from standard input
Warning: card &CELL ignored
Warning: card   CELL_DYNAMICS='BFGS', ignored
Warning: card   CELL_DOFREE='ALL', ignored
Warning: card / ignored

     Current dimensions of program PWSCF are:
     Max number of different atomic species (ntypx) = 10
     Max number of k-points (npk) =  40000
     Max angular momentum in pseudopotentials (lmaxx) =  3
     file H.pbe-kjpaw_psl.1.0.0.UPF: wavefunction(s)  1S renormalized

     Subspace diagonalization in iterative solution of the eigenvalue problem:
     a serial algorithm will be used

     Message from routine setup:
     using ibrav=0 with symmetry is DISCOURAGED, use correct ibrav instead
 
     G-vector sticks info
     --------------------
     sticks:   dense  smooth     PW     G-vecs:    dense   smooth      PW
     Sum         769     511    163                90535    49301    9075
 


     bravais-lattice index     =            0
     lattice parameter (alat)  =       7.3457  a.u.
     unit-cell volume          =    1765.6965 (a.u.)^3
     number of atoms/cell      =            4
     number of atomic types    =            2
     number of electrons       =        10.00
     number of Kohn-Sham states=            9
     kinetic-energy cutoff     =      35.0000  Ry
     charge density cutoff     =     210.0000  Ry
     convergence threshold     =      1.0E-06
     mixing beta               =       0.7000
     number of iterations used =            8  plain     mixing
     Exchange-correlation= SLA PW PBX PBC
                           (   1   4   3   4   0   0   0)

     celldm(1)=   7.345687  celldm(2)=   0.000000  celldm(3)=   0.000000
     celldm(4)=   0.000000  celldm(5)=   0.000000  celldm(6)=   0.000000

     crystal axes: (cart. coord. in units of alat)
               a(1) = (   0.500000   0.866000   0.000000 )  
               a(2) = (  -0.500000   0.866000   0.000000 )  
               a(3) = (   0.000000   0.000000   5.144000 )  

     reciprocal axes: (cart. coord. in units 2 pi/alat)
               b(1) = (  1.000000  0.577367  0.000000 )  
               b(2) = ( -1.000000  0.577367  0.000000 )  
               b(3) = (  0.000000  0.000000  0.194401 )  


     PseudoPot. # 1 for Si read from file:
     /home/jesus/Nanociencia_DFT/pseudopotenciales/Si.pbe-n-rrkjus_psl.1.0.0.UPF
     MD5 check sum: fa25574f73a70a4139f2adfbefec430c
     Pseudo is Ultrasoft + core correction, Zval =  4.0
     Generated using "atomic" code by A. Dal Corso v.6.3
     Using radial grid of 1141 points,  6 beta functions with: 
                l(1) =   0
                l(2) =   0
                l(3) =   1
                l(4) =   1
                l(5) =   2
                l(6) =   2
     Q(r) pseudized with 0 coefficients 


     PseudoPot. # 2 for H  read from file:
     /home/jesus/Nanociencia_DFT/pseudopotenciales/H.pbe-kjpaw_psl.1.0.0.UPF
     MD5 check sum: d81a744832360e4a8af0b0b5b123bc2a
     Pseudo is Projector augmented-wave, Zval =  1.0
     Generated using "atomic" code by A. Dal Corso v.6.3MaX
     Shape of augmentation charge: PSQ
     Using radial grid of  929 points,  2 beta functions with: 
                l(1) =   0
                l(2) =   0
     Q(r) pseudized with 0 coefficients 


     atomic species   valence    mass     pseudopotential
        Si             4.00    28.08550     Si( 1.00)
        H              1.00     1.00800     H ( 1.00)

      2 Sym. Ops. (no inversion) found



   Cartesian axes

     site n.     atom                  positions (alat units)
         1           H   tau(   1) = (   0.0000000   0.0000000   0.0000000  )
         2           Si  tau(   2) = (   0.0000000   0.0000000   0.3858000  )
         3           Si  tau(   3) = (   0.0000000   0.5767560   0.5709840  )
         4           H   tau(   4) = (   0.0000000   0.5767560   0.9567840  )

     number of k points=    81  Methfessel-Paxton smearing, width (Ry)=  0.0100
                       cart. coord. in units 2pi/alat
        k(    1) = (   0.0000000   0.0000000   0.0000000), wk =   0.0069204
        k(    2) = (  -0.0588235   0.0339628   0.0000000), wk =   0.0276817
        k(    3) = (  -0.1176471   0.0679256   0.0000000), wk =   0.0276817
        k(    4) = (  -0.1764706   0.1018883   0.0000000), wk =   0.0276817
        k(    5) = (  -0.2352941   0.1358511   0.0000000), wk =   0.0276817
        k(    6) = (  -0.2941176   0.1698139   0.0000000), wk =   0.0276817
        k(    7) = (  -0.3529412   0.2037767   0.0000000), wk =   0.0276817
        k(    8) = (  -0.4117647   0.2377394   0.0000000), wk =   0.0276817
        k(    9) = (  -0.4705882   0.2717022   0.0000000), wk =   0.0276817
        k(   10) = (   0.0000000   0.0679256   0.0000000), wk =   0.0138408
        k(   11) = (  -0.0588235   0.1018883   0.0000000), wk =   0.0276817
        k(   12) = (  -0.1176471   0.1358511   0.0000000), wk =   0.0276817
        k(   13) = (  -0.1764706   0.1698139   0.0000000), wk =   0.0276817
        k(   14) = (  -0.2352941   0.2037767   0.0000000), wk =   0.0276817
        k(   15) = (  -0.2941176   0.2377394   0.0000000), wk =   0.0276817
        k(   16) = (  -0.3529412   0.2717022   0.0000000), wk =   0.0276817
        k(   17) = (  -0.4117647   0.3056650   0.0000000), wk =   0.0276817
        k(   18) = (   0.5294118  -0.2377394   0.0000000), wk =   0.0276817
        k(   19) = (   0.4705882  -0.2037767   0.0000000), wk =   0.0276817
        k(   20) = (   0.4117647  -0.1698139   0.0000000), wk =   0.0276817
        k(   21) = (   0.3529412  -0.1358511   0.0000000), wk =   0.0276817
        k(   22) = (   0.2941176  -0.1018883   0.0000000), wk =   0.0276817
        k(   23) = (   0.2352941  -0.0679256   0.0000000), wk =   0.0276817
        k(   24) = (   0.1764706  -0.0339628   0.0000000), wk =   0.0276817
        k(   25) = (   0.1176471  -0.0000000   0.0000000), wk =   0.0138408
        k(   26) = (   0.0000000   0.1358511   0.0000000), wk =   0.0138408
        k(   27) = (  -0.0588235   0.1698139   0.0000000), wk =   0.0276817
        k(   28) = (  -0.1176471   0.2037767   0.0000000), wk =   0.0276817
        k(   29) = (  -0.1764706   0.2377394   0.0000000), wk =   0.0276817
        k(   30) = (  -0.2352941   0.2717022   0.0000000), wk =   0.0276817
        k(   31) = (  -0.2941176   0.3056650   0.0000000), wk =   0.0276817
        k(   32) = (  -0.3529412   0.3396278   0.0000000), wk =   0.0276817
        k(   33) = (   0.5882353  -0.2037767   0.0000000), wk =   0.0276817
        k(   34) = (   0.5294118  -0.1698139   0.0000000), wk =   0.0276817
        k(   35) = (   0.4705882  -0.1358511   0.0000000), wk =   0.0276817
        k(   36) = (   0.4117647  -0.1018883   0.0000000), wk =   0.0276817
        k(   37) = (   0.3529412  -0.0679256   0.0000000), wk =   0.0276817
        k(   38) = (   0.2941176  -0.0339628   0.0000000), wk =   0.0276817
        k(   39) = (   0.2352941  -0.0000000   0.0000000), wk =   0.0138408
        k(   40) = (   0.0000000   0.2037767   0.0000000), wk =   0.0138408
        k(   41) = (  -0.0588235   0.2377394   0.0000000), wk =   0.0276817
        k(   42) = (  -0.1176471   0.2717022   0.0000000), wk =   0.0276817
        k(   43) = (  -0.1764706   0.3056650   0.0000000), wk =   0.0276817
        k(   44) = (  -0.2352941   0.3396278   0.0000000), wk =   0.0276817
        k(   45) = (  -0.2941176   0.3735905   0.0000000), wk =   0.0276817
        k(   46) = (   0.6470588  -0.1698139   0.0000000), wk =   0.0276817
        k(   47) = (   0.5882353  -0.1358511   0.0000000), wk =   0.0276817
        k(   48) = (   0.5294118  -0.1018883   0.0000000), wk =   0.0276817
        k(   49) = (   0.4705882  -0.0679256   0.0000000), wk =   0.0276817
        k(   50) = (   0.4117647  -0.0339628   0.0000000), wk =   0.0276817
        k(   51) = (   0.3529412  -0.0000000   0.0000000), wk =   0.0138408
        k(   52) = (   0.0000000   0.2717022   0.0000000), wk =   0.0138408
        k(   53) = (  -0.0588235   0.3056650   0.0000000), wk =   0.0276817
        k(   54) = (  -0.1176471   0.3396278   0.0000000), wk =   0.0276817
        k(   55) = (  -0.1764706   0.3735905   0.0000000), wk =   0.0276817
        k(   56) = (  -0.2352941   0.4075533   0.0000000), wk =   0.0276817
        k(   57) = (   0.7058824  -0.1358511   0.0000000), wk =   0.0276817
        k(   58) = (   0.6470588  -0.1018883   0.0000000), wk =   0.0276817
        k(   59) = (   0.5882353  -0.0679256   0.0000000), wk =   0.0276817
        k(   60) = (   0.5294118  -0.0339628   0.0000000), wk =   0.0276817
        k(   61) = (   0.4705882  -0.0000000   0.0000000), wk =   0.0138408
        k(   62) = (   0.0000000   0.3396278   0.0000000), wk =   0.0138408
        k(   63) = (  -0.0588235   0.3735905   0.0000000), wk =   0.0276817
        k(   64) = (  -0.1176471   0.4075533   0.0000000), wk =   0.0276817
        k(   65) = (  -0.1764706   0.4415161   0.0000000), wk =   0.0276817
        k(   66) = (   0.7647059  -0.1018883   0.0000000), wk =   0.0276817
        k(   67) = (   0.7058824  -0.0679256   0.0000000), wk =   0.0276817
        k(   68) = (   0.6470588  -0.0339628   0.0000000), wk =   0.0276817
        k(   69) = (   0.5882353   0.0000000   0.0000000), wk =   0.0138408
        k(   70) = (   0.0000000   0.4075533   0.0000000), wk =   0.0138408
        k(   71) = (  -0.0588235   0.4415161   0.0000000), wk =   0.0276817
        k(   72) = (  -0.1176471   0.4754789   0.0000000), wk =   0.0276817
        k(   73) = (   0.8235294  -0.0679256   0.0000000), wk =   0.0276817
        k(   74) = (   0.7647059  -0.0339628   0.0000000), wk =   0.0276817
        k(   75) = (   0.7058824   0.0000000   0.0000000), wk =   0.0138408
        k(   76) = (   0.0000000   0.4754789   0.0000000), wk =   0.0138408
        k(   77) = (  -0.0588235   0.5094417   0.0000000), wk =   0.0276817
        k(   78) = (   0.8823529  -0.0339628   0.0000000), wk =   0.0276817
        k(   79) = (   0.8235294   0.0000000   0.0000000), wk =   0.0138408
        k(   80) = (   0.0000000   0.5434044   0.0000000), wk =   0.0138408
        k(   81) = (   0.9411765   0.0000000   0.0000000), wk =   0.0138408

     Dense  grid:    90535 G-vectors     FFT dimensions: (  36,  36, 180)

     Smooth grid:    49301 G-vectors     FFT dimensions: (  27,  27, 144)

     Estimated max dynamical RAM per process >     391.45 MB

     Initial potential from superposition of free atoms

     starting charge    9.99886, renormalised to   10.00000

     negative rho (up, down):  1.007E-04 0.000E+00
     Starting wfcs are   10 randomized atomic wfcs
     Checking if some PAW data can be deallocated... 

     total cpu time spent up to now is        5.2 secs

     Self-consistent Calculation

     iteration #  1     ecut=    35.00 Ry     beta= 0.70
     Davidson diagonalization with overlap
     ethr =  1.00E-02,  avg # of iterations =  3.6

     negative rho (up, down):  8.270E-05 0.000E+00

     total cpu time spent up to now is       17.6 secs

     total energy              =     -25.15092884 Ry
     estimated scf accuracy    <       0.16575154 Ry

     iteration #  2     ecut=    35.00 Ry     beta= 0.70
     Davidson diagonalization with overlap
     ethr =  1.66E-03,  avg # of iterations =  1.3

     negative rho (up, down):  9.793E-05 0.000E+00

     total cpu time spent up to now is       26.5 secs

     total energy              =     -25.16087235 Ry
     estimated scf accuracy    <       0.00460754 Ry

     iteration #  3     ecut=    35.00 Ry     beta= 0.70
     Davidson diagonalization with overlap
     c_bands:  1 eigenvalues not converged
     ethr =  4.61E-05,  avg # of iterations =  9.3

     negative rho (up, down):  1.002E-04 0.000E+00

     total cpu time spent up to now is       42.5 secs

     total energy              =     -25.16166807 Ry
     estimated scf accuracy    <       0.00025632 Ry

     iteration #  4     ecut=    35.00 Ry     beta= 0.70
     Davidson diagonalization with overlap
     c_bands:  1 eigenvalues not converged
     ethr =  2.56E-06,  avg # of iterations =  6.4

     negative rho (up, down):  1.032E-04 0.000E+00

     total cpu time spent up to now is       54.9 secs

     total energy              =     -25.16171092 Ry
     estimated scf accuracy    <       0.00002409 Ry

     iteration #  5     ecut=    35.00 Ry     beta= 0.70
     Davidson diagonalization with overlap
     ethr =  2.41E-07,  avg # of iterations =  1.6

     negative rho (up, down):  1.032E-04 0.000E+00

     total cpu time spent up to now is       63.9 secs

     total energy              =     -25.16171392 Ry
     estimated scf accuracy    <       0.00000175 Ry

     iteration #  6     ecut=    35.00 Ry     beta= 0.70
     Davidson diagonalization with overlap
     ethr =  1.75E-08,  avg # of iterations =  2.0

     negative rho (up, down):  1.034E-04 0.000E+00

     total cpu time spent up to now is       73.3 secs

     End of self-consistent calculation

          k = 0.0000 0.0000 0.0000 (  6083 PWs)   bands (ev):

   -13.7038  -9.1439  -5.8767  -3.3880  -3.3723  -1.0442   0.5396   0.5564
     0.7943

          k =-0.0588 0.0340 0.0000 (  6116 PWs)   bands (ev):

   -13.6660  -9.1334  -5.8758  -3.7207  -3.4618  -0.7768   0.5017   0.6980
     0.8504

          k =-0.1176 0.0679 0.0000 (  6126 PWs)   bands (ev):

   -13.5530  -9.1071  -5.8757  -4.4345  -3.6622  -0.4655   0.5625   1.0570
     1.0953

          k =-0.1765 0.1019 0.0000 (  6166 PWs)   bands (ev):

   -13.3668  -9.0836  -5.8883  -5.2025  -3.9194  -0.5426   0.8255   1.3699
     1.6569

          k =-0.2353 0.1359 0.0000 (  6170 PWs)   bands (ev):

   -13.1110  -9.1005  -6.0250  -5.7892  -4.1803  -0.7548   1.0665   1.4239
     2.2675

          k =-0.2941 0.1698 0.0000 (  6176 PWs)   bands (ev):

   -12.7927  -9.2184  -6.4974  -5.8974  -4.4123  -0.9482   1.1196   1.2855
     2.3131

          k =-0.3529 0.2038 0.0000 (  6182 PWs)   bands (ev):

   -12.4263  -9.4844  -6.8088  -5.9641  -4.5972  -1.0838   0.7740   1.3472
     2.9876

          k =-0.4118 0.2377 0.0000 (  6180 PWs)   bands (ev):

   -12.0466  -9.8546  -6.9283  -6.0351  -4.7248  -1.1592   0.4774   1.3517
     3.0361

          k =-0.4706 0.2717 0.0000 (  6180 PWs)   bands (ev):

   -11.7538 -10.1652  -6.9493  -6.0857  -4.7898  -1.1891   0.3139   1.3381
     3.0338

          k = 0.0000 0.0679 0.0000 (  6116 PWs)   bands (ev):

   -13.6660  -9.1334  -5.8758  -3.7308  -3.4509  -0.7774   0.5130   0.6858
     0.8506

          k =-0.0588 0.1019 0.0000 (  6115 PWs)   bands (ev):

   -13.5905  -9.1149  -5.8752  -4.2222  -3.6159  -0.4499   0.4381   0.8688
     1.1133

          k =-0.1176 0.1359 0.0000 (  6127 PWs)   bands (ev):

   -13.4408  -9.0894  -5.8798  -4.9087  -3.8895  -0.2596   0.5397   1.0773
     1.5013

          k =-0.1765 0.1698 0.0000 (  6162 PWs)   bands (ev):

   -13.2195  -9.0843  -5.9138  -5.5913  -4.1854  -0.4098   0.8813   1.3831
     1.6989

          k =-0.2353 0.2038 0.0000 (  6163 PWs)   bands (ev):

   -12.9317  -9.1486  -6.2596  -5.8799  -4.4562  -0.6125   1.1254   1.3681
     2.0454

          k =-0.2941 0.2377 0.0000 (  6193 PWs)   bands (ev):

   -12.5873  -9.3420  -6.6640  -5.9437  -4.6794  -0.7713   0.9911   1.3074
     2.3368

          k =-0.3529 0.2717 0.0000 (  6191 PWs)   bands (ev):

   -12.2077  -9.6729  -6.8672  -6.0117  -4.8446  -0.8675   0.6486   1.3460
     2.6256

          k =-0.4118 0.3057 0.0000 (  6186 PWs)   bands (ev):

   -11.8506 -10.0399  -6.9269  -6.0729  -4.9462  -0.9095   0.4034   1.3482
     2.7623

          k = 0.5294-0.2377 0.0000 (  6172 PWs)   bands (ev):

   -11.6780 -10.2232  -6.9334  -6.0985  -4.9809  -0.9191   0.3148   1.3453
     2.7792

          k = 0.4706-0.2038 0.0000 (  6186 PWs)   bands (ev):

   -11.8510 -10.0392  -6.9270  -6.0723  -4.9471  -0.9091   0.4031   1.3483
     2.7615

          k = 0.4118-0.1698 0.0000 (  6191 PWs)   bands (ev):

   -12.2081  -9.6719  -6.8672  -6.0108  -4.8463  -0.8667   0.6484   1.3460
     2.6240

          k = 0.3529-0.1359 0.0000 (  6193 PWs)   bands (ev):

   -12.5877  -9.3412  -6.6634  -5.9428  -4.6821  -0.7703   0.9916   1.3067
     2.3346

          k = 0.2941-0.1019 0.0000 (  6163 PWs)   bands (ev):

   -12.9321  -9.1479  -6.2581  -5.8787  -4.4601  -0.6113   1.1250   1.3687
     2.0410

          k = 0.2353-0.0679 0.0000 (  6162 PWs)   bands (ev):

   -13.2198  -9.0840  -5.9135  -5.5874  -4.1908  -0.4080   0.8781   1.3846
     1.6942

          k = 0.1765-0.0340 0.0000 (  6127 PWs)   bands (ev):

   -13.4410  -9.0893  -5.8796  -4.9026  -3.8974  -0.2562   0.5313   1.0785
     1.4994

          k = 0.1176-0.0000 0.0000 (  6115 PWs)   bands (ev):

   -13.5906  -9.1148  -5.8750  -4.2124  -3.6273  -0.4474   0.4269   0.8734
     1.1207

          k = 0.0000 0.1359 0.0000 (  6126 PWs)   bands (ev):

   -13.5529  -9.1072  -5.8759  -4.4428  -3.6525  -0.4630   0.5673   1.0573
     1.0848

          k =-0.0588 0.1698 0.0000 (  6127 PWs)   bands (ev):

   -13.4407  -9.0896  -5.8800  -4.9120  -3.8858  -0.2546   0.5367   1.0758
     1.5002

          k =-0.1176 0.2038 0.0000 (  6145 PWs)   bands (ev):

   -13.2558  -9.0811  -5.8948  -5.4640  -4.2552   0.1343   0.4271   1.2369
     1.6240

          k =-0.1765 0.2377 0.0000 (  6165 PWs)   bands (ev):

   -13.0018  -9.1186  -6.0290  -5.9031  -4.6216   0.0669   0.7943   1.4852
     1.7096

          k =-0.2353 0.2717 0.0000 (  6175 PWs)   bands (ev):

   -12.6856  -9.2553  -6.4591  -5.9630  -4.9234  -0.0970   1.0962   1.3646
     1.9909

          k =-0.2941 0.3057 0.0000 (  6180 PWs)   bands (ev):

   -12.3209  -9.5267  -6.7325  -6.0240  -5.1501  -0.2035   0.9519   1.2734
     2.2274

          k =-0.3529 0.3396 0.0000 (  6195 PWs)   bands (ev):

   -11.9404  -9.8910  -6.8512  -6.0796  -5.3051  -0.2408   0.6176   1.3321
     2.3242

          k = 0.5882-0.2038 0.0000 (  6194 PWs)   bands (ev):

   -11.6417 -10.1999  -6.8833  -6.1122  -5.3868  -0.2312   0.4088   1.3663
     2.3230

          k = 0.5294-0.1698 0.0000 (  6194 PWs)   bands (ev):

   -11.6422 -10.1990  -6.8835  -6.1115  -5.3877  -0.2306   0.4083   1.3664
     2.3228

          k = 0.4706-0.1359 0.0000 (  6195 PWs)   bands (ev):

   -11.9414  -9.8892  -6.8514  -6.0779  -5.3078  -0.2396   0.6168   1.3322
     2.3233

          k = 0.4118-0.1019 0.0000 (  6182 PWs)   bands (ev):

   -12.3219  -9.5247  -6.7319  -6.0220  -5.1544  -0.2020   0.9521   1.2724
     2.2256

          k = 0.3529-0.0679 0.0000 (  6175 PWs)   bands (ev):

   -12.6865  -9.2536  -6.4568  -5.9612  -4.9296  -0.0954   1.0966   1.3635
     1.9884

          k = 0.2941-0.0340 0.0000 (  6165 PWs)   bands (ev):

   -13.0025  -9.1175  -6.0255  -5.9002  -4.6299   0.0693   0.7900   1.4882
     1.7064

          k = 0.2353-0.0000 0.0000 (  6145 PWs)   bands (ev):

   -13.2563  -9.0805  -5.8942  -5.4559  -4.2657   0.1390   0.4176   1.2391
     1.6232

          k = 0.0000 0.2038 0.0000 (  6166 PWs)   bands (ev):

   -13.3664  -9.0840  -5.8890  -5.2092  -3.9111  -0.5368   0.8260   1.3695
     1.6484

          k =-0.0588 0.2377 0.0000 (  6162 PWs)   bands (ev):

   -13.2192  -9.0848  -5.9151  -5.5944  -4.1807  -0.4029   0.8792   1.3825
     1.6937

          k =-0.1176 0.2717 0.0000 (  6165 PWs)   bands (ev):

   -13.0016  -9.1190  -6.0321  -5.9020  -4.6196   0.0733   0.7905   1.4860
     1.7060

          k =-0.1765 0.3057 0.0000 (  6181 PWs)   bands (ev):

   -12.7185  -9.2270  -6.3292  -6.0026  -5.0509   0.6029   0.6792   1.7070
     1.7436

          k =-0.2353 0.3396 0.0000 (  6191 PWs)   bands (ev):

   -12.3789  -9.4458  -6.5653  -6.0944  -5.3836   0.5112   1.0130   1.5119
     1.9958

          k =-0.2941 0.3736 0.0000 (  6191 PWs)   bands (ev):

   -12.0017  -9.7713  -6.7113  -6.1596  -5.6173   0.4416   1.1352   1.2031
     2.0221

          k = 0.6471-0.1698 0.0000 (  6188 PWs)   bands (ev):

   -11.6373 -10.1278  -6.7875  -6.1666  -5.7792   0.4421   0.8376   1.3357
     1.9408

          k = 0.5882-0.1359 0.0000 (  6185 PWs)   bands (ev):

   -11.4518 -10.3150  -6.8119  -6.1493  -5.8495   0.4785   0.6967   1.4068
     1.8760

          k = 0.5294-0.1019 0.0000 (  6188 PWs)   bands (ev):

   -11.6389 -10.1253  -6.7880  -6.1640  -5.7824   0.4442   0.8353   1.3355
     1.9409

          k = 0.4706-0.0679 0.0000 (  6193 PWs)   bands (ev):

   -12.0034  -9.7681  -6.7110  -6.1568  -5.6224   0.4438   1.1350   1.2006
     2.0217

          k = 0.4118-0.0340 0.0000 (  6191 PWs)   bands (ev):

   -12.3804  -9.4426  -6.5627  -6.0923  -5.3906   0.5133   1.0122   1.5100
     1.9949

          k = 0.3529-0.0000 0.0000 (  6181 PWs)   bands (ev):

   -12.7197  -9.2247  -6.3236  -6.0013  -5.0600   0.6077   0.6726   1.7051
     1.7469

          k = 0.0000 0.2717 0.0000 (  6170 PWs)   bands (ev):

   -13.1103  -9.1016  -6.0293  -5.7911  -4.1731  -0.7484   1.0664   1.4228
     2.2625

          k =-0.0588 0.3057 0.0000 (  6163 PWs)   bands (ev):

   -12.9310  -9.1499  -6.2638  -5.8800  -4.4515  -0.6057   1.1250   1.3673
     2.0412

          k =-0.1176 0.3396 0.0000 (  6175 PWs)   bands (ev):

   -12.6849  -9.2567  -6.4620  -5.9627  -4.9205  -0.0906   1.0956   1.3638
     1.9893

          k =-0.1765 0.3736 0.0000 (  6191 PWs)   bands (ev):

   -12.3784  -9.4468  -6.5668  -6.0938  -5.3823   0.5158   1.0111   1.5135
     1.9952

          k =-0.2353 0.4076 0.0000 (  6189 PWs)   bands (ev):

   -12.0228  -9.7263  -6.5886  -6.2777  -5.7180   0.7789   0.9861   1.8943
     2.0106

          k = 0.7059-0.1359 0.0000 (  6191 PWs)   bands (ev):

   -11.6424 -10.0686  -6.6271  -6.3699  -5.9428   0.6806   1.1645   1.7075
     1.9625

          k = 0.6471-0.1019 0.0000 (  6189 PWs)   bands (ev):

   -11.3171 -10.3803  -6.7123  -6.2784  -6.1225   0.6034   1.3441   1.5647
     1.8190

          k = 0.5882-0.0679 0.0000 (  6189 PWs)   bands (ev):

   -11.3190 -10.3778  -6.7128  -6.2759  -6.1252   0.6038   1.3451   1.5610
     1.8210

          k = 0.5294-0.0340 0.0000 (  6191 PWs)   bands (ev):

   -11.6451 -10.0640  -6.6275  -6.3677  -5.9466   0.6819   1.1645   1.7025
     1.9645

          k = 0.4706-0.0000 0.0000 (  6189 PWs)   bands (ev):

   -12.0252  -9.7214  -6.5862  -6.2768  -5.7240   0.7810   0.9850   1.8898
     2.0033

          k = 0.0000 0.3396 0.0000 (  6176 PWs)   bands (ev):

   -12.7914  -9.2209  -6.5016  -5.8984  -4.4060  -0.9418   1.1200   1.2840
     2.3134

          k =-0.0588 0.3736 0.0000 (  6193 PWs)   bands (ev):

   -12.5858  -9.3450  -6.6669  -5.9444  -4.6747  -0.7646   0.9919   1.3054
     2.3356

          k =-0.1176 0.4076 0.0000 (  6182 PWs)   bands (ev):

   -12.3193  -9.5300  -6.7345  -6.0243  -5.1466  -0.1971   0.9534   1.2708
     2.2269

          k =-0.1765 0.4415 0.0000 (  6191 PWs)   bands (ev):

   -12.0000  -9.7744  -6.7127  -6.1589  -5.6154   0.4460   1.1389   1.1999
     2.0223

          k = 0.7647-0.1019 0.0000 (  6191 PWs)   bands (ev):

   -11.6409 -10.0709  -6.6285  -6.3679  -5.9426   0.6820   1.1634   1.7080
     1.9671

          k = 0.7059-0.0679 0.0000 (  6181 PWs)   bands (ev):

   -11.2671 -10.4021  -6.6083  -6.4671  -6.1461   0.6905   1.2320   1.5450
     2.8109

          k = 0.6471-0.0340 0.0000 (  6181 PWs)   bands (ev):

   -11.0132 -10.6405  -6.6779  -6.3644  -6.2755   0.6765   1.3539   1.3890
     2.8912

          k = 0.5882 0.0000 0.0000 (  6181 PWs)   bands (ev):

   -11.2719 -10.3958  -6.6084  -6.4671  -6.1476   0.6906   1.2321   1.5443
     2.8018

          k = 0.0000 0.4076 0.0000 (  6182 PWs)   bands (ev):

   -12.4239  -9.4891  -6.8109  -5.9657  -4.5914  -1.0775   0.7748   1.3453
     2.9865

          k =-0.0588 0.4415 0.0000 (  6189 PWs)   bands (ev):

   -12.2048  -9.6783  -6.8684  -6.0132  -4.8398  -0.8610   0.6497   1.3436
     2.6252

          k =-0.1176 0.4755 0.0000 (  6195 PWs)   bands (ev):

   -11.9370  -9.8971  -6.8519  -6.0808  -5.3011  -0.2344   0.6190   1.3295
     2.3243

          k = 0.8235-0.0679 0.0000 (  6188 PWs)   bands (ev):

   -11.6332 -10.1342  -6.7880  -6.1670  -5.7763   0.4458   0.8414   1.3329
     1.9414

          k = 0.7647-0.0340 0.0000 (  6189 PWs)   bands (ev):

   -11.3120 -10.3872  -6.7129  -6.2761  -6.1225   0.6046   1.3435   1.5645
     1.8241

          k = 0.7059 0.0000 0.0000 (  6181 PWs)   bands (ev):

   -11.0062 -10.6484  -6.6783  -6.3617  -6.2770   0.6768   1.3546   1.3878
     2.8975

          k = 0.0000 0.4755 0.0000 (  6180 PWs)   bands (ev):

   -12.0425  -9.8621  -6.9286  -6.0375  -4.7193  -1.1531   0.4789   1.3488
     3.0361

          k =-0.0588 0.5094 0.0000 (  6186 PWs)   bands (ev):

   -11.8454 -10.0486  -6.9267  -6.0753  -4.9413  -0.9032   0.4050   1.3450
     2.7624

          k = 0.8824-0.0340 0.0000 (  6194 PWs)   bands (ev):

   -11.6353 -10.2096  -6.8829  -6.1146  -5.3820  -0.2249   0.4103   1.3631
     2.3236

          k = 0.8235 0.0000 0.0000 (  6185 PWs)   bands (ev):

   -11.4445 -10.3254  -6.8116  -6.1518  -5.8446   0.4799   0.7030   1.4036
     1.8767

          k = 0.0000 0.5434 0.0000 (  6180 PWs)   bands (ev):

   -11.7470 -10.1758  -6.9485  -6.0887  -4.7844  -1.1830   0.3158   1.3347
     3.0342

          k = 0.9412 0.0000 0.0000 (  6172 PWs)   bands (ev):

   -11.6706 -10.2344  -6.9325  -6.1015  -4.9756  -0.9131   0.3167   1.3418
     2.7797

     the Fermi energy is    -3.3065 ev

!    total energy              =     -25.16171410 Ry
     estimated scf accuracy    <       0.00000042 Ry
     smearing contrib. (-TS)   =       0.00002276 Ry
     internal energy E=F+TS    =     -25.16173686 Ry

     The total energy is F=E-TS. E is the sum of the following terms:
     one-electron contribution =    -110.89081741 Ry
     hartree contribution      =      56.76196056 Ry
     xc contribution           =     -13.64719220 Ry
     ewald contribution        =      42.61459434 Ry
     one-center paw contrib.   =      -0.00028215 Ry

     convergence has been achieved in   6 iterations

     Writing output data file /home/jesus/Documentos/Nanociencia_DFT/silicano.save/
 
     init_run     :      4.20s CPU      4.42s WALL (       1 calls)
     electrons    :     66.52s CPU     68.07s WALL (       1 calls)

     Called by init_run:
     wfcinit      :      3.02s CPU      3.05s WALL (       1 calls)
     potinit      :      0.31s CPU      0.34s WALL (       1 calls)
     hinit0       :      0.55s CPU      0.57s WALL (       1 calls)

     Called by electrons:
     c_bands      :     54.68s CPU     54.80s WALL (       6 calls)
     sum_band     :      9.77s CPU     10.47s WALL (       6 calls)
     v_of_rho     :      0.70s CPU      0.75s WALL (       7 calls)
     newd         :      1.52s CPU      2.35s WALL (       7 calls)
     PAW_pot      :      0.01s CPU      0.01s WALL (       7 calls)
     mix_rho      :      0.08s CPU      0.08s WALL (       6 calls)

     Called by c_bands:
     init_us_2    :      2.19s CPU      2.19s WALL (    1053 calls)
     cegterg      :     45.39s CPU     45.51s WALL (     486 calls)

     Called by *egterg:
     cdiaghg      :      0.37s CPU      0.37s WALL (    2441 calls)
     h_psi        :     41.51s CPU     41.61s WALL (    2522 calls)
     s_psi        :      1.74s CPU      1.75s WALL (    2522 calls)
     g_psi        :      0.18s CPU      0.19s WALL (    1955 calls)

     Called by h_psi:
     h_psi:calbec :      1.90s CPU      1.90s WALL (    2522 calls)
     vloc_psi     :     37.64s CPU     37.74s WALL (    2522 calls)
     add_vuspsi   :      1.75s CPU      1.76s WALL (    2522 calls)

     General routines
     calbec       :      2.40s CPU      2.41s WALL (    3008 calls)
     fft          :      0.27s CPU      0.28s WALL (      89 calls)
     ffts         :      0.02s CPU      0.02s WALL (      13 calls)
     fftw         :     38.53s CPU     38.63s WALL (   31982 calls)
     interpolate  :      0.04s CPU      0.04s WALL (       7 calls)
 
     Parallel routines
 
     PWSCF        :   1m11.54s CPU   1m13.49s WALL

 
   This run was terminated on:  15:14: 3  31Mar2021            

=------------------------------------------------------------------------------=
   JOB DONE.
=------------------------------------------------------------------------------=
