
     Program PWSCF v.6.6 starts on 15Mar2021 at 22:33:50 

     This program is part of the open-source Quantum ESPRESSO suite
     for quantum simulation of materials; please cite
         "P. Giannozzi et al., J. Phys.:Condens. Matter 21 395502 (2009);
         "P. Giannozzi et al., J. Phys.:Condens. Matter 29 465901 (2017);
          URL http://www.quantum-espresso.org", 
     in publications or presentations arising from this work. More details at
     http://www.quantum-espresso.org/quote

     Parallel version (MPI), running on     1 processors

     MPI processes distributed on     1 nodes
     Fft bands division:     nmany     =       1
     Waiting for input...
     Reading input from standard input
Warning: card &CELL ignored
Warning: card   CELL_DYNAMICS='BFGS', ignored
Warning: card   CELL_DOFREE='ALL', ignored
Warning: card / ignored

     Current dimensions of program PWSCF are:
     Max number of different atomic species (ntypx) = 10
     Max number of k-points (npk) =  40000
     Max angular momentum in pseudopotentials (lmaxx) =  3

     Subspace diagonalization in iterative solution of the eigenvalue problem:
     a serial algorithm will be used

 
     G-vector sticks info
     --------------------
     sticks:   dense  smooth     PW     G-vecs:    dense   smooth      PW
     Sum         889     439    151                17573     6231    1139
 


     bravais-lattice index     =            2
     lattice parameter (alat)  =      10.3935  a.u.
     unit-cell volume          =     280.6885 (a.u.)^3
     number of atoms/cell      =            2
     number of atomic types    =            1
     number of electrons       =         8.00
     number of Kohn-Sham states=            8
     kinetic-energy cutoff     =      30.0000  Ry
     charge density cutoff     =     240.0000  Ry
     convergence threshold     =      1.0E-06
     mixing beta               =       0.7000
     number of iterations used =            8  plain     mixing
     Exchange-correlation= PBE
                           (   1   4   3   4   0   0   0)
     nstep                     =            1


     celldm(1)=  10.393494  celldm(2)=   0.000000  celldm(3)=   0.000000
     celldm(4)=   0.000000  celldm(5)=   0.000000  celldm(6)=   0.000000

     crystal axes: (cart. coord. in units of alat)
               a(1) = (  -0.500000   0.000000   0.500000 )  
               a(2) = (   0.000000   0.500000   0.500000 )  
               a(3) = (  -0.500000   0.500000   0.000000 )  

     reciprocal axes: (cart. coord. in units 2 pi/alat)
               b(1) = ( -1.000000 -1.000000  1.000000 )  
               b(2) = (  1.000000  1.000000  1.000000 )  
               b(3) = ( -1.000000  1.000000 -1.000000 )  


     PseudoPot. # 1 for Si read from file:
     /home/jesus/Documentos/Nanociencia_DFT/pseudopotenciales/Si.pbe-n-rrkjus_psl.1.0.0.UPF
     MD5 check sum: fa25574f73a70a4139f2adfbefec430c
     Pseudo is Ultrasoft + core correction, Zval =  4.0
     Generated using "atomic" code by A. Dal Corso v.6.3
     Using radial grid of 1141 points,  6 beta functions with: 
                l(1) =   0
                l(2) =   0
                l(3) =   1
                l(4) =   1
                l(5) =   2
                l(6) =   2
     Q(r) pseudized with 0 coefficients 


     atomic species   valence    mass     pseudopotential
        Si             4.00    28.08550     Si( 1.00)

     48 Sym. Ops., with inversion, found (24 have fractional translation)



   Cartesian axes

     site n.     atom                  positions (alat units)
         1           Si  tau(   1) = (   0.0000000   0.0000000   0.0000000  )
         2           Si  tau(   2) = (  -0.2500000   0.2500000   0.2500000  )

     number of k points=    29  Methfessel-Paxton smearing, width (Ry)=  0.0100
                       cart. coord. in units 2pi/alat
        k(    1) = (   0.0000000   0.0000000   0.0000000), wk =   0.0039062
        k(    2) = (  -0.1250000   0.1250000  -0.1250000), wk =   0.0312500
        k(    3) = (  -0.2500000   0.2500000  -0.2500000), wk =   0.0312500
        k(    4) = (  -0.3750000   0.3750000  -0.3750000), wk =   0.0312500
        k(    5) = (   0.5000000  -0.5000000   0.5000000), wk =   0.0156250
        k(    6) = (   0.0000000   0.2500000   0.0000000), wk =   0.0234375
        k(    7) = (  -0.1250000   0.3750000  -0.1250000), wk =   0.0937500
        k(    8) = (  -0.2500000   0.5000000  -0.2500000), wk =   0.0937500
        k(    9) = (   0.6250000  -0.3750000   0.6250000), wk =   0.0937500
        k(   10) = (   0.5000000  -0.2500000   0.5000000), wk =   0.0937500
        k(   11) = (   0.3750000  -0.1250000   0.3750000), wk =   0.0937500
        k(   12) = (   0.2500000   0.0000000   0.2500000), wk =   0.0468750
        k(   13) = (   0.0000000   0.5000000   0.0000000), wk =   0.0234375
        k(   14) = (  -0.1250000   0.6250000  -0.1250000), wk =   0.0937500
        k(   15) = (   0.7500000  -0.2500000   0.7500000), wk =   0.0937500
        k(   16) = (   0.6250000  -0.1250000   0.6250000), wk =   0.0937500
        k(   17) = (   0.5000000   0.0000000   0.5000000), wk =   0.0468750
        k(   18) = (   0.0000000   0.7500000   0.0000000), wk =   0.0234375
        k(   19) = (   0.8750000  -0.1250000   0.8750000), wk =   0.0937500
        k(   20) = (   0.7500000   0.0000000   0.7500000), wk =   0.0468750
        k(   21) = (   0.0000000  -1.0000000   0.0000000), wk =   0.0117188
        k(   22) = (  -0.2500000   0.5000000   0.0000000), wk =   0.0937500
        k(   23) = (   0.6250000  -0.3750000   0.8750000), wk =   0.1875000
        k(   24) = (   0.5000000  -0.2500000   0.7500000), wk =   0.0937500
        k(   25) = (   0.7500000  -0.2500000   1.0000000), wk =   0.0937500
        k(   26) = (   0.6250000  -0.1250000   0.8750000), wk =   0.1875000
        k(   27) = (   0.5000000   0.0000000   0.7500000), wk =   0.0937500
        k(   28) = (  -0.2500000  -1.0000000   0.0000000), wk =   0.0468750
        k(   29) = (  -0.5000000  -1.0000000   0.0000000), wk =   0.0234375

     Dense  grid:    17573 G-vectors     FFT dimensions: (  40,  40,  40)

     Smooth grid:     6231 G-vectors     FFT dimensions: (  32,  32,  32)

     Estimated max dynamical RAM per process >      67.23 MB

     Initial potential from superposition of free atoms

     starting charge    7.99888, renormalised to    8.00000
     Starting wfcs are    8 randomized atomic wfcs

     total cpu time spent up to now is        1.3 secs

     Self-consistent Calculation

     iteration #  1     ecut=    30.00 Ry     beta= 0.70
     Davidson diagonalization with overlap
     ethr =  1.00E-02,  avg # of iterations =  3.7

     Threshold (ethr) on eigenvalues was too large:
     Diagonalizing with lowered threshold

     Davidson diagonalization with overlap
     ethr =  6.08E-04,  avg # of iterations =  1.8

     total cpu time spent up to now is        2.9 secs

     total energy              =     -22.83735380 Ry
     estimated scf accuracy    <       0.05225206 Ry

     iteration #  2     ecut=    30.00 Ry     beta= 0.70
     Davidson diagonalization with overlap
     ethr =  6.53E-04,  avg # of iterations =  1.0

     total cpu time spent up to now is        3.6 secs

     total energy              =     -22.83934291 Ry
     estimated scf accuracy    <       0.00224177 Ry

     iteration #  3     ecut=    30.00 Ry     beta= 0.70
     Davidson diagonalization with overlap
     ethr =  2.80E-05,  avg # of iterations =  5.3

     total cpu time spent up to now is        4.5 secs

     total energy              =     -22.83947949 Ry
     estimated scf accuracy    <       0.00004448 Ry

     iteration #  4     ecut=    30.00 Ry     beta= 0.70
     Davidson diagonalization with overlap
     ethr =  5.56E-07,  avg # of iterations =  3.8

     total cpu time spent up to now is        5.4 secs

     End of self-consistent calculation

          k = 0.0000 0.0000 0.0000 (   749 PWs)   bands (ev):

    -5.8919   5.8126   5.8126   5.8126   8.3591   8.3591   8.3591   8.7408

          k =-0.1250 0.1250-0.1250 (   785 PWs)   bands (ev):

    -5.6945   4.2224   5.5341   5.5341   8.1965   8.7682   8.7682  10.1944

          k =-0.2500 0.2500-0.2500 (   784 PWs)   bands (ev):

    -5.1192   1.9512   5.0765   5.0765   7.7076   9.2869   9.2869  12.4182

          k =-0.3750 0.3750-0.3750 (   775 PWs)   bands (ev):

    -4.2603  -0.0053   4.7563   4.7563   7.3433   9.2658   9.2658  13.6094

          k = 0.5000-0.5000 0.5000 (   778 PWs)   bands (ev):

    -3.6557  -0.9843   4.6464   4.6464   7.2153   9.1687   9.1687  13.4938

          k = 0.0000 0.2500 0.0000 (   789 PWs)   bands (ev):

    -5.6279   4.4398   5.0395   5.0395   7.8269   9.4557   9.4557   9.8721

          k =-0.1250 0.3750-0.1250 (   791 PWs)   bands (ev):

    -5.1749   2.6139   4.5435   4.5976   7.9518   9.3607  10.2052  10.5411

          k =-0.2500 0.5000-0.2500 (   783 PWs)   bands (ev):

    -4.3897   0.6222   4.0199   4.2806   8.0199   9.3620  10.2350  11.2319

          k = 0.6250-0.3750 0.6250 (   782 PWs)   bands (ev):

    -3.5686  -0.7823   3.5892   4.3005   7.9440   9.2807   9.9000  13.0639

          k = 0.5000-0.2500 0.5000 (   784 PWs)   bands (ev):

    -3.8001  -0.4285   3.4191   4.5844   8.0792   9.4091   9.6714  13.5630

          k = 0.3750-0.1250 0.3750 (   787 PWs)   bands (ev):

    -4.6846   1.2583   3.5764   5.0583   8.4094   9.4575   9.6316  11.9486

          k = 0.2500 0.0000 0.2500 (   775 PWs)   bands (ev):

    -5.3695   3.1386   4.2509   5.5238   8.7104   8.9049   9.1201  11.1385

          k = 0.0000 0.5000 0.0000 (   769 PWs)   bands (ev):

    -4.8454   2.2857   3.9921   3.9921   6.9783   8.9468  11.4464  11.4464

          k =-0.1250 0.6250-0.1250 (   782 PWs)   bands (ev):

    -4.1599   0.9097   3.2373   3.6825   7.1975   8.7206  11.6473  11.9690

          k = 0.7500-0.2500 0.7500 (   777 PWs)   bands (ev):

    -3.2719  -0.4722   2.4013   3.6834   7.3697  10.2315  11.3765  11.6554

          k = 0.6250-0.1250 0.6250 (   780 PWs)   bands (ev):

    -3.0803  -0.7156   1.9626   3.9893   7.6749  11.1618  11.2233  12.6353

          k = 0.5000 0.0000 0.5000 (   784 PWs)   bands (ev):

    -3.9203   0.3977   2.2038   4.5265   8.2357  10.5240  10.8591  11.7617

          k = 0.0000 0.7500 0.0000 (   785 PWs)   bands (ev):

    -3.5765   0.1189   3.2968   3.2968   6.4893   7.4163  13.6632  13.6632

          k = 0.8750-0.1250 0.8750 (   773 PWs)   bands (ev):

    -2.7117  -0.9329   2.5097   3.2223   6.7712   7.8111  13.9097  13.9368

          k = 0.7500 0.0000 0.7500 (   762 PWs)   bands (ev):

    -2.3006  -1.3092   1.6860   3.4705   7.0693   9.9121  13.1163  13.6538

          k = 0.0000-1.0000 0.0000 (   790 PWs)   bands (ev):

    -1.8854  -1.8854   3.0583   3.0583   6.5963   6.5963  15.5917  15.5918

          k =-0.2500 0.5000 0.0000 (   784 PWs)   bands (ev):

    -4.6073   1.5534   3.2035   4.4302   8.2501   9.5682  10.0283  11.2036

          k = 0.6250-0.3750 0.8750 (   783 PWs)   bands (ev):

    -3.7530   0.0591   2.6025   3.9533   8.6626   9.3213  10.7561  11.6464

          k = 0.5000-0.2500 0.7500 (   782 PWs)   bands (ev):

    -3.1331  -0.8404   2.4691   3.7353   8.7963   8.9716  11.6053  13.0421

          k = 0.7500-0.2500 1.0000 (   772 PWs)   bands (ev):

    -3.3874  -0.0935   2.5777   3.1611   7.7741   8.4806  11.4408  13.6162

          k = 0.6250-0.1250 0.8750 (   769 PWs)   bands (ev):

    -2.5507  -1.0266   1.9116   2.9688   8.2121  10.0736  10.9708  13.0898

          k = 0.5000 0.0000 0.7500 (   773 PWs)   bands (ev):

    -2.8888  -0.6730   1.7527   3.3284   8.6726  10.3032  10.9384  12.7209

          k =-0.2500-1.0000 0.0000 (   772 PWs)   bands (ev):

    -1.8149  -1.8149   2.5286   2.5286   7.8102   7.8102  13.4849  13.4850

          k =-0.5000-1.0000 0.0000 (   772 PWs)   bands (ev):

    -1.7379  -1.7379   2.1178   2.1178  10.0885  10.0885  10.6803  10.6803

     the Fermi energy is     6.3889 ev

!    total energy              =     -22.83948630 Ry
     estimated scf accuracy    <       0.00000008 Ry
     smearing contrib. (-TS)   =       0.00001424 Ry
     internal energy E=F+TS    =     -22.83950054 Ry

     The total energy is F=E-TS. E is the sum of the following terms:
     one-electron contribution =       4.87378638 Ry
     hartree contribution      =       1.13515446 Ry
     xc contribution           =     -12.26330238 Ry
     ewald contribution        =     -16.58513900 Ry

     convergence has been achieved in   4 iterations

     Forces acting on atoms (cartesian axes, Ry/au):

     atom    1 type  1   force =    -0.00000000   -0.00000000   -0.00000000
     atom    2 type  1   force =     0.00000000    0.00000000    0.00000000

     Total force =     0.000000     Total SCF correction =     0.000000

     BFGS Geometry Optimization

     bfgs converged in   1 scf cycles and   0 bfgs steps
     (criteria: energy <  1.0E-04 Ry, force <  1.0E-03 Ry/Bohr)

     End of BFGS Geometry Optimization

     Final energy   =     -22.8394862980 Ry
Begin final coordinates

ATOMIC_POSITIONS (crystal)
Si            0.0000000000        0.0000000000        0.0000000000
Si            0.2500000000        0.2500000000        0.2500000000
End final coordinates



     Writing output data file /home/jesus/Documentos/Nanociencia_DFT/test.save/
 
     init_run     :      0.52s CPU      0.55s WALL (       1 calls)
     electrons    :      3.89s CPU      4.14s WALL (       1 calls)
     forces       :      0.11s CPU      0.14s WALL (       1 calls)

     Called by init_run:
     wfcinit      :      0.15s CPU      0.15s WALL (       1 calls)
     potinit      :      0.04s CPU      0.04s WALL (       1 calls)
     hinit0       :      0.27s CPU      0.27s WALL (       1 calls)

     Called by electrons:
     c_bands      :      2.78s CPU      2.82s WALL (       5 calls)
     sum_band     :      0.76s CPU      0.88s WALL (       5 calls)
     v_of_rho     :      0.18s CPU      0.18s WALL (       5 calls)
     newd         :      0.21s CPU      0.32s WALL (       5 calls)
     mix_rho      :      0.01s CPU      0.02s WALL (       5 calls)

     Called by c_bands:
     init_us_2    :      0.10s CPU      0.10s WALL (     348 calls)
     cegterg      :      2.36s CPU      2.39s WALL (     145 calls)

     Called by *egterg:
     cdiaghg      :      0.08s CPU      0.08s WALL (     569 calls)
     h_psi        :      2.20s CPU      2.23s WALL (     627 calls)
     s_psi        :      0.05s CPU      0.05s WALL (     627 calls)
     g_psi        :      0.01s CPU      0.01s WALL (     453 calls)

     Called by h_psi:
     h_psi:calbec :      0.08s CPU      0.08s WALL (     627 calls)
     vloc_psi     :      2.04s CPU      2.07s WALL (     627 calls)
     add_vuspsi   :      0.06s CPU      0.06s WALL (     627 calls)

     General routines
     calbec       :      0.11s CPU      0.12s WALL (     888 calls)
     fft          :      0.07s CPU      0.07s WALL (      75 calls)
     ffts         :      0.00s CPU      0.00s WALL (      10 calls)
     fftw         :      1.99s CPU      2.02s WALL (    7858 calls)
     interpolate  :      0.01s CPU      0.01s WALL (       5 calls)
 
     Parallel routines
 
     PWSCF        :      5.24s CPU      5.57s WALL

 
   This run was terminated on:  22:33:55  15Mar2021            

=------------------------------------------------------------------------------=
   JOB DONE.
=------------------------------------------------------------------------------=
