
     Program PWSCF v.6.6 starts on 15Mar2021 at 22:33:12 

     This program is part of the open-source Quantum ESPRESSO suite
     for quantum simulation of materials; please cite
         "P. Giannozzi et al., J. Phys.:Condens. Matter 21 395502 (2009);
         "P. Giannozzi et al., J. Phys.:Condens. Matter 29 465901 (2017);
          URL http://www.quantum-espresso.org", 
     in publications or presentations arising from this work. More details at
     http://www.quantum-espresso.org/quote

     Parallel version (MPI), running on     1 processors

     MPI processes distributed on     1 nodes
     Fft bands division:     nmany     =       1
     Waiting for input...
     Reading input from standard input
Warning: card &CELL ignored
Warning: card   CELL_DYNAMICS='BFGS', ignored
Warning: card   CELL_DOFREE='ALL', ignored
Warning: card / ignored

     Current dimensions of program PWSCF are:
     Max number of different atomic species (ntypx) = 10
     Max number of k-points (npk) =  40000
     Max angular momentum in pseudopotentials (lmaxx) =  3

     Subspace diagonalization in iterative solution of the eigenvalue problem:
     a serial algorithm will be used

 
     G-vector sticks info
     --------------------
     sticks:   dense  smooth     PW     G-vecs:    dense   smooth      PW
     Sum         637     313    109                10369     3695     725
 


     bravais-lattice index     =            2
     lattice parameter (alat)  =       8.6927  a.u.
     unit-cell volume          =     164.2140 (a.u.)^3
     number of atoms/cell      =            2
     number of atomic types    =            1
     number of electrons       =         8.00
     number of Kohn-Sham states=            8
     kinetic-energy cutoff     =      30.0000  Ry
     charge density cutoff     =     240.0000  Ry
     convergence threshold     =      1.0E-06
     mixing beta               =       0.7000
     number of iterations used =            8  plain     mixing
     Exchange-correlation= PBE
                           (   1   4   3   4   0   0   0)
     nstep                     =            1


     celldm(1)=   8.692740  celldm(2)=   0.000000  celldm(3)=   0.000000
     celldm(4)=   0.000000  celldm(5)=   0.000000  celldm(6)=   0.000000

     crystal axes: (cart. coord. in units of alat)
               a(1) = (  -0.500000   0.000000   0.500000 )  
               a(2) = (   0.000000   0.500000   0.500000 )  
               a(3) = (  -0.500000   0.500000   0.000000 )  

     reciprocal axes: (cart. coord. in units 2 pi/alat)
               b(1) = ( -1.000000 -1.000000  1.000000 )  
               b(2) = (  1.000000  1.000000  1.000000 )  
               b(3) = ( -1.000000  1.000000 -1.000000 )  


     PseudoPot. # 1 for Si read from file:
     /home/jesus/Documentos/Nanociencia_DFT/pseudopotenciales/Si.pbe-n-rrkjus_psl.1.0.0.UPF
     MD5 check sum: fa25574f73a70a4139f2adfbefec430c
     Pseudo is Ultrasoft + core correction, Zval =  4.0
     Generated using "atomic" code by A. Dal Corso v.6.3
     Using radial grid of 1141 points,  6 beta functions with: 
                l(1) =   0
                l(2) =   0
                l(3) =   1
                l(4) =   1
                l(5) =   2
                l(6) =   2
     Q(r) pseudized with 0 coefficients 


     atomic species   valence    mass     pseudopotential
        Si             4.00    28.08550     Si( 1.00)

     48 Sym. Ops., with inversion, found (24 have fractional translation)



   Cartesian axes

     site n.     atom                  positions (alat units)
         1           Si  tau(   1) = (   0.0000000   0.0000000   0.0000000  )
         2           Si  tau(   2) = (  -0.2500000   0.2500000   0.2500000  )

     number of k points=    29  Methfessel-Paxton smearing, width (Ry)=  0.0100
                       cart. coord. in units 2pi/alat
        k(    1) = (   0.0000000   0.0000000   0.0000000), wk =   0.0039062
        k(    2) = (  -0.1250000   0.1250000  -0.1250000), wk =   0.0312500
        k(    3) = (  -0.2500000   0.2500000  -0.2500000), wk =   0.0312500
        k(    4) = (  -0.3750000   0.3750000  -0.3750000), wk =   0.0312500
        k(    5) = (   0.5000000  -0.5000000   0.5000000), wk =   0.0156250
        k(    6) = (   0.0000000   0.2500000   0.0000000), wk =   0.0234375
        k(    7) = (  -0.1250000   0.3750000  -0.1250000), wk =   0.0937500
        k(    8) = (  -0.2500000   0.5000000  -0.2500000), wk =   0.0937500
        k(    9) = (   0.6250000  -0.3750000   0.6250000), wk =   0.0937500
        k(   10) = (   0.5000000  -0.2500000   0.5000000), wk =   0.0937500
        k(   11) = (   0.3750000  -0.1250000   0.3750000), wk =   0.0937500
        k(   12) = (   0.2500000   0.0000000   0.2500000), wk =   0.0468750
        k(   13) = (   0.0000000   0.5000000   0.0000000), wk =   0.0234375
        k(   14) = (  -0.1250000   0.6250000  -0.1250000), wk =   0.0937500
        k(   15) = (   0.7500000  -0.2500000   0.7500000), wk =   0.0937500
        k(   16) = (   0.6250000  -0.1250000   0.6250000), wk =   0.0937500
        k(   17) = (   0.5000000   0.0000000   0.5000000), wk =   0.0468750
        k(   18) = (   0.0000000   0.7500000   0.0000000), wk =   0.0234375
        k(   19) = (   0.8750000  -0.1250000   0.8750000), wk =   0.0937500
        k(   20) = (   0.7500000   0.0000000   0.7500000), wk =   0.0468750
        k(   21) = (   0.0000000  -1.0000000   0.0000000), wk =   0.0117188
        k(   22) = (  -0.2500000   0.5000000   0.0000000), wk =   0.0937500
        k(   23) = (   0.6250000  -0.3750000   0.8750000), wk =   0.1875000
        k(   24) = (   0.5000000  -0.2500000   0.7500000), wk =   0.0937500
        k(   25) = (   0.7500000  -0.2500000   1.0000000), wk =   0.0937500
        k(   26) = (   0.6250000  -0.1250000   0.8750000), wk =   0.1875000
        k(   27) = (   0.5000000   0.0000000   0.7500000), wk =   0.0937500
        k(   28) = (  -0.2500000  -1.0000000   0.0000000), wk =   0.0468750
        k(   29) = (  -0.5000000  -1.0000000   0.0000000), wk =   0.0234375

     Dense  grid:    10369 G-vectors     FFT dimensions: (  32,  32,  32)

     Smooth grid:     3695 G-vectors     FFT dimensions: (  24,  24,  24)

     Estimated max dynamical RAM per process >      39.82 MB

     Initial potential from superposition of free atoms

     starting charge    7.99888, renormalised to    8.00000
     Starting wfcs are    8 randomized atomic wfcs

     total cpu time spent up to now is        1.1 secs

     Self-consistent Calculation

     iteration #  1     ecut=    30.00 Ry     beta= 0.70
     Davidson diagonalization with overlap
     ethr =  1.00E-02,  avg # of iterations =  5.4

     total cpu time spent up to now is        1.7 secs

     total energy              =     -22.50794449 Ry
     estimated scf accuracy    <       0.10038255 Ry

     iteration #  2     ecut=    30.00 Ry     beta= 0.70
     Davidson diagonalization with overlap
     ethr =  1.25E-03,  avg # of iterations =  1.1

     total cpu time spent up to now is        2.0 secs

     total energy              =     -22.51724192 Ry
     estimated scf accuracy    <       0.00134957 Ry

     iteration #  3     ecut=    30.00 Ry     beta= 0.70
     Davidson diagonalization with overlap
     ethr =  1.69E-05,  avg # of iterations =  6.1

     total cpu time spent up to now is        2.5 secs

     total energy              =     -22.51756346 Ry
     estimated scf accuracy    <       0.00007946 Ry

     iteration #  4     ecut=    30.00 Ry     beta= 0.70
     Davidson diagonalization with overlap
     ethr =  9.93E-07,  avg # of iterations =  3.4

     total cpu time spent up to now is        2.8 secs

     End of self-consistent calculation

          k = 0.0000 0.0000 0.0000 (   459 PWs)   bands (ev):

    -3.4731  12.7241  12.7241  12.7241  15.3284  15.3285  15.3285  22.3399

          k =-0.1250 0.1250-0.1250 (   465 PWs)   bands (ev):

    -3.1676  10.6024  12.2586  12.2586  16.0143  16.0144  16.0405  19.8096

          k =-0.2500 0.2500-0.2500 (   465 PWs)   bands (ev):

    -2.2636   7.3765  11.6159  11.6159  16.1831  16.3633  16.3633  20.0493

          k =-0.3750 0.3750-0.3750 (   461 PWs)   bands (ev):

    -0.8260   4.3995  11.2279  11.2279  15.7085  15.7085  16.0658  21.2819

          k = 0.5000-0.5000 0.5000 (   464 PWs)   bands (ev):

     0.4591   2.5854  11.1076  11.1076  15.3870  15.3870  16.0143  20.8902

          k = 0.0000 0.2500 0.0000 (   459 PWs)   bands (ev):

    -3.0656  11.3406  11.3406  11.6307  14.5093  17.1909  17.1909  18.0607

          k =-0.1250 0.3750-0.1250 (   462 PWs)   bands (ev):

    -2.3596   8.5922  10.5972  11.1927  14.7237  16.9065  18.0503  18.0912

          k =-0.2500 0.5000-0.2500 (   458 PWs)   bands (ev):

    -1.0876   5.5433  10.2745  10.3480  14.5819  17.4332  17.4597  19.0841

          k = 0.6250-0.3750 0.6250 (   451 PWs)   bands (ev):

     0.4864   3.1119   9.6282  10.3995  14.5528  16.6508  17.4644  21.6831

          k = 0.5000-0.2500 0.5000 (   450 PWs)   bands (ev):

    -0.0151   3.7902   9.2345  10.9228  15.1295  16.2948  17.3907  21.7673

          k = 0.3750-0.1250 0.3750 (   459 PWs)   bands (ev):

    -1.5712   6.5367   9.2777  11.7143  16.1600  16.4346  17.3186  19.0681

          k = 0.2500 0.0000 0.2500 (   469 PWs)   bands (ev):

    -2.6620   9.4613   9.9916  12.4403  16.1004  16.7882  16.9049  18.4374

          k = 0.0000 0.5000 0.0000 (   456 PWs)   bands (ev):

    -1.8544   9.1068   9.7206   9.7206  13.1336  14.7631  20.1435  20.1436

          k =-0.1250 0.6250-0.1250 (   454 PWs)   bands (ev):

    -0.7698   6.8269   8.6166   9.2794  13.1920  14.8433  20.2683  20.9699

          k = 0.7500-0.2500 0.7500 (   453 PWs)   bands (ev):

     0.7773   4.3466   7.3728   9.3276  13.2093  17.2518  19.3748  21.1305

          k = 0.6250-0.1250 0.6250 (   452 PWs)   bands (ev):

     1.2421   3.7673   6.6122   9.8520  13.7730  18.7399  19.1612  21.6599

          k = 0.5000 0.0000 0.5000 (   443 PWs)   bands (ev):

    -0.3208   5.8798   6.6824  10.7662  14.8700  18.4146  18.7642  18.9202

          k = 0.0000 0.7500 0.0000 (   452 PWs)   bands (ev):

     0.1224   5.9267   8.6903   8.6903  12.1841  12.7616  23.1712  23.1712

          k = 0.8750-0.1250 0.8750 (   456 PWs)   bands (ev):

     1.5314   4.3491   7.0932   8.5941  12.2996  13.9491  22.7791  23.8519

          k = 0.7500 0.0000 0.7500 (   458 PWs)   bands (ev):

     2.5583   3.5705   5.4693   8.9979  12.7550  16.9695  22.2458  23.2258

          k = 0.0000-1.0000 0.0000 (   460 PWs)   bands (ev):

     2.7807   2.7807   8.3412   8.3412  11.9943  11.9943  25.4322  25.4322

          k =-0.2500 0.5000 0.0000 (   462 PWs)   bands (ev):

    -1.4647   7.5841   8.3424  10.6203  15.1498  16.0227  18.0081  19.6849

          k = 0.6250-0.3750 0.8750 (   451 PWs)   bands (ev):

    -0.0405   5.0280   7.8064   9.6381  15.2670  16.6226  18.3050  20.3884

          k = 0.5000-0.2500 0.7500 (   450 PWs)   bands (ev):

     1.2441   3.2566   7.7974   9.1685  15.2456  16.3348  19.5507  21.9994

          k = 0.7500-0.2500 1.0000 (   454 PWs)   bands (ev):

     0.4768   5.6617   7.3229   8.1121  14.2577  14.5618  19.9139  22.8833

          k = 0.6250-0.1250 0.8750 (   454 PWs)   bands (ev):

     2.0280   4.0283   6.1205   7.8129  14.6026  17.0518  19.2590  21.8199

          k = 0.5000 0.0000 0.7500 (   457 PWs)   bands (ev):

     1.4562   4.5888   5.7767   8.4785  15.2666  17.7721  18.6935  21.0665

          k =-0.2500-1.0000 0.0000 (   452 PWs)   bands (ev):

     3.0231   3.0231   7.1207   7.1207  14.0151  14.0151  22.5001  22.5001

          k =-0.5000-1.0000 0.0000 (   464 PWs)   bands (ev):

     3.3505   3.3505   6.1850   6.1850  16.8584  16.8585  19.1179  19.1179

     the Fermi energy is    12.2816 ev

!    total energy              =     -22.51757106 Ry
     estimated scf accuracy    <       0.00000021 Ry
     smearing contrib. (-TS)   =      -0.00017334 Ry
     internal energy E=F+TS    =     -22.51739772 Ry

     The total energy is F=E-TS. E is the sum of the following terms:
     one-electron contribution =       9.65903082 Ry
     hartree contribution      =       0.67067635 Ry
     xc contribution           =     -13.01704740 Ry
     ewald contribution        =     -19.83005750 Ry

     convergence has been achieved in   4 iterations

     Forces acting on atoms (cartesian axes, Ry/au):

     atom    1 type  1   force =     0.00000000    0.00000000   -0.00000000
     atom    2 type  1   force =    -0.00000000   -0.00000000    0.00000000

     Total force =     0.000000     Total SCF correction =     0.000000

     BFGS Geometry Optimization

     bfgs converged in   1 scf cycles and   0 bfgs steps
     (criteria: energy <  1.0E-04 Ry, force <  1.0E-03 Ry/Bohr)

     End of BFGS Geometry Optimization

     Final energy   =     -22.5175710650 Ry
Begin final coordinates

ATOMIC_POSITIONS (crystal)
Si            0.0000000000        0.0000000000        0.0000000000
Si            0.2500000000        0.2500000000        0.2500000000
End final coordinates



     Writing output data file /home/jesus/Documentos/Nanociencia_DFT/test.save/
 
     init_run     :      0.38s CPU      0.40s WALL (       1 calls)
     electrons    :      1.65s CPU      1.69s WALL (       1 calls)
     forces       :      0.06s CPU      0.06s WALL (       1 calls)

     Called by init_run:
     wfcinit      :      0.10s CPU      0.10s WALL (       1 calls)
     potinit      :      0.02s CPU      0.02s WALL (       1 calls)
     hinit0       :      0.23s CPU      0.23s WALL (       1 calls)

     Called by electrons:
     c_bands      :      1.25s CPU      1.26s WALL (       4 calls)
     sum_band     :      0.28s CPU      0.29s WALL (       4 calls)
     v_of_rho     :      0.06s CPU      0.07s WALL (       5 calls)
     newd         :      0.09s CPU      0.11s WALL (       5 calls)
     mix_rho      :      0.00s CPU      0.00s WALL (       4 calls)

     Called by c_bands:
     init_us_2    :      0.04s CPU      0.04s WALL (     290 calls)
     cegterg      :      1.08s CPU      1.09s WALL (     116 calls)

     Called by *egterg:
     cdiaghg      :      0.07s CPU      0.07s WALL (     582 calls)
     h_psi        :      0.99s CPU      1.00s WALL (     611 calls)
     s_psi        :      0.02s CPU      0.02s WALL (     611 calls)
     g_psi        :      0.00s CPU      0.00s WALL (     466 calls)

     Called by h_psi:
     h_psi:calbec :      0.03s CPU      0.03s WALL (     611 calls)
     vloc_psi     :      0.93s CPU      0.93s WALL (     611 calls)
     add_vuspsi   :      0.03s CPU      0.03s WALL (     611 calls)

     General routines
     calbec       :      0.05s CPU      0.05s WALL (     843 calls)
     fft          :      0.02s CPU      0.02s WALL (      74 calls)
     ffts         :      0.00s CPU      0.00s WALL (       9 calls)
     fftw         :      0.96s CPU      0.97s WALL (    6950 calls)
     interpolate  :      0.00s CPU      0.00s WALL (       5 calls)
 
     Parallel routines
 
     PWSCF        :      2.82s CPU      2.91s WALL

 
   This run was terminated on:  22:33:15  15Mar2021            

=------------------------------------------------------------------------------=
   JOB DONE.
=------------------------------------------------------------------------------=
