
     Program PWSCF v.6.6 starts on 15Mar2021 at 22:33:56 

     This program is part of the open-source Quantum ESPRESSO suite
     for quantum simulation of materials; please cite
         "P. Giannozzi et al., J. Phys.:Condens. Matter 21 395502 (2009);
         "P. Giannozzi et al., J. Phys.:Condens. Matter 29 465901 (2017);
          URL http://www.quantum-espresso.org", 
     in publications or presentations arising from this work. More details at
     http://www.quantum-espresso.org/quote

     Parallel version (MPI), running on     1 processors

     MPI processes distributed on     1 nodes
     Fft bands division:     nmany     =       1
     Waiting for input...
     Reading input from standard input
Warning: card &CELL ignored
Warning: card   CELL_DYNAMICS='BFGS', ignored
Warning: card   CELL_DOFREE='ALL', ignored
Warning: card / ignored

     Current dimensions of program PWSCF are:
     Max number of different atomic species (ntypx) = 10
     Max number of k-points (npk) =  40000
     Max angular momentum in pseudopotentials (lmaxx) =  3

     Subspace diagonalization in iterative solution of the eigenvalue problem:
     a serial algorithm will be used

 
     G-vector sticks info
     --------------------
     sticks:   dense  smooth     PW     G-vecs:    dense   smooth      PW
     Sum         925     463    151                18643     6615    1243
 


     bravais-lattice index     =            2
     lattice parameter (alat)  =      10.5825  a.u.
     unit-cell volume          =     296.2789 (a.u.)^3
     number of atoms/cell      =            2
     number of atomic types    =            1
     number of electrons       =         8.00
     number of Kohn-Sham states=            8
     kinetic-energy cutoff     =      30.0000  Ry
     charge density cutoff     =     240.0000  Ry
     convergence threshold     =      1.0E-06
     mixing beta               =       0.7000
     number of iterations used =            8  plain     mixing
     Exchange-correlation= PBE
                           (   1   4   3   4   0   0   0)
     nstep                     =            1


     celldm(1)=  10.582466  celldm(2)=   0.000000  celldm(3)=   0.000000
     celldm(4)=   0.000000  celldm(5)=   0.000000  celldm(6)=   0.000000

     crystal axes: (cart. coord. in units of alat)
               a(1) = (  -0.500000   0.000000   0.500000 )  
               a(2) = (   0.000000   0.500000   0.500000 )  
               a(3) = (  -0.500000   0.500000   0.000000 )  

     reciprocal axes: (cart. coord. in units 2 pi/alat)
               b(1) = ( -1.000000 -1.000000  1.000000 )  
               b(2) = (  1.000000  1.000000  1.000000 )  
               b(3) = ( -1.000000  1.000000 -1.000000 )  


     PseudoPot. # 1 for Si read from file:
     /home/jesus/Documentos/Nanociencia_DFT/pseudopotenciales/Si.pbe-n-rrkjus_psl.1.0.0.UPF
     MD5 check sum: fa25574f73a70a4139f2adfbefec430c
     Pseudo is Ultrasoft + core correction, Zval =  4.0
     Generated using "atomic" code by A. Dal Corso v.6.3
     Using radial grid of 1141 points,  6 beta functions with: 
                l(1) =   0
                l(2) =   0
                l(3) =   1
                l(4) =   1
                l(5) =   2
                l(6) =   2
     Q(r) pseudized with 0 coefficients 


     atomic species   valence    mass     pseudopotential
        Si             4.00    28.08550     Si( 1.00)

     48 Sym. Ops., with inversion, found (24 have fractional translation)



   Cartesian axes

     site n.     atom                  positions (alat units)
         1           Si  tau(   1) = (   0.0000000   0.0000000   0.0000000  )
         2           Si  tau(   2) = (  -0.2500000   0.2500000   0.2500000  )

     number of k points=    29  Methfessel-Paxton smearing, width (Ry)=  0.0100
                       cart. coord. in units 2pi/alat
        k(    1) = (   0.0000000   0.0000000   0.0000000), wk =   0.0039062
        k(    2) = (  -0.1250000   0.1250000  -0.1250000), wk =   0.0312500
        k(    3) = (  -0.2500000   0.2500000  -0.2500000), wk =   0.0312500
        k(    4) = (  -0.3750000   0.3750000  -0.3750000), wk =   0.0312500
        k(    5) = (   0.5000000  -0.5000000   0.5000000), wk =   0.0156250
        k(    6) = (   0.0000000   0.2500000   0.0000000), wk =   0.0234375
        k(    7) = (  -0.1250000   0.3750000  -0.1250000), wk =   0.0937500
        k(    8) = (  -0.2500000   0.5000000  -0.2500000), wk =   0.0937500
        k(    9) = (   0.6250000  -0.3750000   0.6250000), wk =   0.0937500
        k(   10) = (   0.5000000  -0.2500000   0.5000000), wk =   0.0937500
        k(   11) = (   0.3750000  -0.1250000   0.3750000), wk =   0.0937500
        k(   12) = (   0.2500000   0.0000000   0.2500000), wk =   0.0468750
        k(   13) = (   0.0000000   0.5000000   0.0000000), wk =   0.0234375
        k(   14) = (  -0.1250000   0.6250000  -0.1250000), wk =   0.0937500
        k(   15) = (   0.7500000  -0.2500000   0.7500000), wk =   0.0937500
        k(   16) = (   0.6250000  -0.1250000   0.6250000), wk =   0.0937500
        k(   17) = (   0.5000000   0.0000000   0.5000000), wk =   0.0468750
        k(   18) = (   0.0000000   0.7500000   0.0000000), wk =   0.0234375
        k(   19) = (   0.8750000  -0.1250000   0.8750000), wk =   0.0937500
        k(   20) = (   0.7500000   0.0000000   0.7500000), wk =   0.0468750
        k(   21) = (   0.0000000  -1.0000000   0.0000000), wk =   0.0117188
        k(   22) = (  -0.2500000   0.5000000   0.0000000), wk =   0.0937500
        k(   23) = (   0.6250000  -0.3750000   0.8750000), wk =   0.1875000
        k(   24) = (   0.5000000  -0.2500000   0.7500000), wk =   0.0937500
        k(   25) = (   0.7500000  -0.2500000   1.0000000), wk =   0.0937500
        k(   26) = (   0.6250000  -0.1250000   0.8750000), wk =   0.1875000
        k(   27) = (   0.5000000   0.0000000   0.7500000), wk =   0.0937500
        k(   28) = (  -0.2500000  -1.0000000   0.0000000), wk =   0.0468750
        k(   29) = (  -0.5000000  -1.0000000   0.0000000), wk =   0.0234375

     Dense  grid:    18643 G-vectors     FFT dimensions: (  40,  40,  40)

     Smooth grid:     6615 G-vectors     FFT dimensions: (  32,  32,  32)

     Estimated max dynamical RAM per process >      70.96 MB

     Initial potential from superposition of free atoms

     starting charge    7.99888, renormalised to    8.00000
     Starting wfcs are    8 randomized atomic wfcs

     total cpu time spent up to now is        1.4 secs

     Self-consistent Calculation

     iteration #  1     ecut=    30.00 Ry     beta= 0.70
     Davidson diagonalization with overlap
     ethr =  1.00E-02,  avg # of iterations =  3.6

     Threshold (ethr) on eigenvalues was too large:
     Diagonalizing with lowered threshold

     Davidson diagonalization with overlap
     ethr =  5.55E-04,  avg # of iterations =  1.9

     total cpu time spent up to now is        2.8 secs

     total energy              =     -22.83408692 Ry
     estimated scf accuracy    <       0.04765510 Ry

     iteration #  2     ecut=    30.00 Ry     beta= 0.70
     Davidson diagonalization with overlap
     ethr =  5.96E-04,  avg # of iterations =  1.2

     total cpu time spent up to now is        3.4 secs

     total energy              =     -22.83565925 Ry
     estimated scf accuracy    <       0.00228207 Ry

     iteration #  3     ecut=    30.00 Ry     beta= 0.70
     Davidson diagonalization with overlap
     ethr =  2.85E-05,  avg # of iterations =  5.1

     total cpu time spent up to now is        4.4 secs

     total energy              =     -22.83577931 Ry
     estimated scf accuracy    <       0.00003704 Ry

     iteration #  4     ecut=    30.00 Ry     beta= 0.70
     Davidson diagonalization with overlap
     ethr =  4.63E-07,  avg # of iterations =  3.9

     total cpu time spent up to now is        5.1 secs

     End of self-consistent calculation

          k = 0.0000 0.0000 0.0000 (   869 PWs)   bands (ev):

    -6.0730   5.2798   5.2798   5.2798   7.6161   7.7998   7.7998   7.7998

          k =-0.1250 0.1250-0.1250 (   833 PWs)   bands (ev):

    -5.8847   3.6925   5.0166   5.0166   7.4660   8.1879   8.1879   9.2584

          k =-0.2500 0.2500-0.2500 (   821 PWs)   bands (ev):

    -5.3373   1.5025   4.5781   4.5781   6.9817   8.7041   8.7042  11.4632

          k =-0.3750 0.3750-0.3750 (   820 PWs)   bands (ev):

    -4.5258  -0.3650   4.2684   4.2684   6.6217   8.7257   8.7258  12.9220

          k = 0.5000-0.5000 0.5000 (   832 PWs)   bands (ev):

    -3.9655  -1.2851   4.1615   4.1615   6.4948   8.6475   8.6476  12.8795

          k = 0.0000 0.2500 0.0000 (   841 PWs)   bands (ev):

    -5.8211   3.8445   4.5538   4.5538   7.2943   8.8361   8.8361   8.8649

          k =-0.1250 0.3750-0.1250 (   830 PWs)   bands (ev):

    -5.3896   2.1077   4.0804   4.1066   7.3996   8.5932   9.5628   9.9459

          k =-0.2500 0.5000-0.2500 (   824 PWs)   bands (ev):

    -4.6451   0.2135   3.5478   3.8251   7.4093   8.7041   9.6344  10.6228

          k = 0.6250-0.3750 0.6250 (   821 PWs)   bands (ev):

    -3.8782  -1.1101   3.1376   3.8391   7.3014   8.6914   9.3382  12.3569

          k = 0.5000-0.2500 0.5000 (   828 PWs)   bands (ev):

    -4.0926  -0.7790   2.9832   4.1058   7.3998   8.8409   9.1146  12.7842

          k = 0.3750-0.1250 0.3750 (   825 PWs)   bands (ev):

    -4.9243   0.8172   3.1491   4.5552   7.6953   8.8729   9.0399  11.1805

          k = 0.2500 0.0000 0.2500 (   825 PWs)   bands (ev):

    -5.5750   2.6119   3.8107   4.9984   7.9565   8.3246   8.5110  10.2992

          k = 0.0000 0.5000 0.0000 (   833 PWs)   bands (ev):

    -5.0751   1.7359   3.5565   3.5565   6.4900   8.3820  10.7377  10.7377

          k =-0.1250 0.6250-0.1250 (   825 PWs)   bands (ev):

    -4.4232   0.4258   2.8380   3.2593   6.7044   8.1837  10.8910  11.2702

          k = 0.7500-0.2500 0.7500 (   818 PWs)   bands (ev):

    -3.5869  -0.8747   2.0409   3.2573   6.8758   9.6337  10.6064  11.0045

          k = 0.6250-0.1250 0.6250 (   824 PWs)   bands (ev):

    -3.4119  -1.0983   1.6294   3.5459   7.1526  10.4488  10.5821  11.9204

          k = 0.5000 0.0000 0.5000 (   819 PWs)   bands (ev):

    -4.2000  -0.0483   1.8701   4.0537   7.6485   9.8778  10.1948  10.9613

          k = 0.0000 0.7500 0.0000 (   817 PWs)   bands (ev):

    -3.8661  -0.3444   2.8914   2.8914   6.0352   6.9566  12.8586  12.8586

          k = 0.8750-0.1250 0.8750 (   813 PWs)   bands (ev):

    -3.0457  -1.3499   2.1602   2.8191   6.3174   7.3110  13.0782  13.1266

          k = 0.7500 0.0000 0.7500 (   812 PWs)   bands (ev):

    -2.6708  -1.6990   1.3935   3.0544   6.5987   9.3249  12.3475  12.8369

          k = 0.0000-1.0000 0.0000 (   806 PWs)   bands (ev):

    -2.2556  -2.2556   2.6629   2.6629   6.1564   6.1564  14.6103  14.6103

          k =-0.2500 0.5000 0.0000 (   834 PWs)   bands (ev):

    -4.8496   1.0580   2.8151   3.9621   7.6985   8.8095   9.5165  10.5112

          k = 0.6250-0.3750 0.8750 (   819 PWs)   bands (ev):

    -4.0417  -0.3578   2.2263   3.5182   8.0691   8.7178  10.1105  10.9704

          k = 0.5000-0.2500 0.7500 (   824 PWs)   bands (ev):

    -3.4652  -1.1963   2.0876   3.3157   8.1346   8.4656  10.8934  12.2717

          k = 0.7500-0.2500 1.0000 (   814 PWs)   bands (ev):

    -3.6898  -0.5471   2.2213   2.7767   7.2545   7.9597  10.7279  12.8126

          k = 0.6250-0.1250 0.8750 (   818 PWs)   bands (ev):

    -2.9043  -1.4329   1.5986   2.5962   7.6826   9.4952  10.2706  12.3138

          k = 0.5000 0.0000 0.7500 (   821 PWs)   bands (ev):

    -3.2254  -1.0925   1.4504   2.9335   8.1120   9.6839  10.2725  11.9956

          k =-0.2500-1.0000 0.0000 (   818 PWs)   bands (ev):

    -2.1948  -2.1948   2.1789   2.1789   7.3051   7.3051  12.6976  12.6977

          k =-0.5000-1.0000 0.0000 (   792 PWs)   bands (ev):

    -2.1291  -2.1291   1.8015   1.8015   9.5555   9.5555   9.9495   9.9495

     the Fermi energy is     5.3929 ev

!    total energy              =     -22.83578673 Ry
     estimated scf accuracy    <       0.00000008 Ry
     smearing contrib. (-TS)   =       0.00000400 Ry
     internal energy E=F+TS    =     -22.83579073 Ry

     The total energy is F=E-TS. E is the sum of the following terms:
     one-electron contribution =       4.46952279 Ry
     hartree contribution      =       1.18402816 Ry
     xc contribution           =     -12.20036587 Ry
     ewald contribution        =     -16.28897580 Ry

     convergence has been achieved in   4 iterations

     Forces acting on atoms (cartesian axes, Ry/au):

     atom    1 type  1   force =     0.00000000    0.00000000   -0.00000000
     atom    2 type  1   force =     0.00000000    0.00000000   -0.00000000

     Total force =     0.000000     Total SCF correction =     0.000000

     BFGS Geometry Optimization

     bfgs converged in   1 scf cycles and   0 bfgs steps
     (criteria: energy <  1.0E-04 Ry, force <  1.0E-03 Ry/Bohr)

     End of BFGS Geometry Optimization

     Final energy   =     -22.8357867308 Ry
Begin final coordinates

ATOMIC_POSITIONS (crystal)
Si            0.0000000000        0.0000000000        0.0000000000
Si            0.2500000000        0.2500000000        0.2500000000
End final coordinates



     Writing output data file /home/jesus/Documentos/Nanociencia_DFT/test.save/
 
     init_run     :      0.58s CPU      0.64s WALL (       1 calls)
     electrons    :      3.49s CPU      3.74s WALL (       1 calls)
     forces       :      0.12s CPU      0.14s WALL (       1 calls)

     Called by init_run:
     wfcinit      :      0.22s CPU      0.22s WALL (       1 calls)
     potinit      :      0.04s CPU      0.04s WALL (       1 calls)
     hinit0       :      0.26s CPU      0.29s WALL (       1 calls)

     Called by electrons:
     c_bands      :      2.44s CPU      2.46s WALL (       5 calls)
     sum_band     :      0.75s CPU      0.88s WALL (       5 calls)
     v_of_rho     :      0.14s CPU      0.16s WALL (       5 calls)
     newd         :      0.21s CPU      0.31s WALL (       5 calls)
     mix_rho      :      0.01s CPU      0.01s WALL (       5 calls)

     Called by c_bands:
     init_us_2    :      0.10s CPU      0.10s WALL (     348 calls)
     cegterg      :      2.04s CPU      2.06s WALL (     145 calls)

     Called by *egterg:
     cdiaghg      :      0.07s CPU      0.07s WALL (     567 calls)
     h_psi        :      1.97s CPU      1.98s WALL (     625 calls)
     s_psi        :      0.05s CPU      0.05s WALL (     625 calls)
     g_psi        :      0.01s CPU      0.01s WALL (     451 calls)

     Called by h_psi:
     h_psi:calbec :      0.07s CPU      0.07s WALL (     625 calls)
     vloc_psi     :      1.83s CPU      1.84s WALL (     625 calls)
     add_vuspsi   :      0.06s CPU      0.06s WALL (     625 calls)

     General routines
     calbec       :      0.11s CPU      0.11s WALL (     886 calls)
     fft          :      0.05s CPU      0.07s WALL (      75 calls)
     ffts         :      0.00s CPU      0.00s WALL (      10 calls)
     fftw         :      1.82s CPU      1.84s WALL (    7792 calls)
     interpolate  :      0.01s CPU      0.01s WALL (       5 calls)
 
     Parallel routines
 
     PWSCF        :      4.93s CPU      5.27s WALL

 
   This run was terminated on:  22:34: 1  15Mar2021            

=------------------------------------------------------------------------------=
   JOB DONE.
=------------------------------------------------------------------------------=
