
     Program PWSCF v.6.6 starts on 15Mar2021 at 22:33: 6 

     This program is part of the open-source Quantum ESPRESSO suite
     for quantum simulation of materials; please cite
         "P. Giannozzi et al., J. Phys.:Condens. Matter 21 395502 (2009);
         "P. Giannozzi et al., J. Phys.:Condens. Matter 29 465901 (2017);
          URL http://www.quantum-espresso.org", 
     in publications or presentations arising from this work. More details at
     http://www.quantum-espresso.org/quote

     Parallel version (MPI), running on     1 processors

     MPI processes distributed on     1 nodes
     Fft bands division:     nmany     =       1
     Waiting for input...
     Reading input from standard input
Warning: card &CELL ignored
Warning: card   CELL_DYNAMICS='BFGS', ignored
Warning: card   CELL_DOFREE='ALL', ignored
Warning: card / ignored

     Current dimensions of program PWSCF are:
     Max number of different atomic species (ntypx) = 10
     Max number of k-points (npk) =  40000
     Max angular momentum in pseudopotentials (lmaxx) =  3

     Subspace diagonalization in iterative solution of the eigenvalue problem:
     a serial algorithm will be used

 
     G-vector sticks info
     --------------------
     sticks:   dense  smooth     PW     G-vecs:    dense   smooth      PW
     Sum         583     283     97                 9185     3143     645
 


     bravais-lattice index     =            2
     lattice parameter (alat)  =       8.3148  a.u.
     unit-cell volume          =     143.7125 (a.u.)^3
     number of atoms/cell      =            2
     number of atomic types    =            1
     number of electrons       =         8.00
     number of Kohn-Sham states=            8
     kinetic-energy cutoff     =      30.0000  Ry
     charge density cutoff     =     240.0000  Ry
     convergence threshold     =      1.0E-06
     mixing beta               =       0.7000
     number of iterations used =            8  plain     mixing
     Exchange-correlation= PBE
                           (   1   4   3   4   0   0   0)
     nstep                     =            1


     celldm(1)=   8.314795  celldm(2)=   0.000000  celldm(3)=   0.000000
     celldm(4)=   0.000000  celldm(5)=   0.000000  celldm(6)=   0.000000

     crystal axes: (cart. coord. in units of alat)
               a(1) = (  -0.500000   0.000000   0.500000 )  
               a(2) = (   0.000000   0.500000   0.500000 )  
               a(3) = (  -0.500000   0.500000   0.000000 )  

     reciprocal axes: (cart. coord. in units 2 pi/alat)
               b(1) = ( -1.000000 -1.000000  1.000000 )  
               b(2) = (  1.000000  1.000000  1.000000 )  
               b(3) = ( -1.000000  1.000000 -1.000000 )  


     PseudoPot. # 1 for Si read from file:
     /home/jesus/Documentos/Nanociencia_DFT/pseudopotenciales/Si.pbe-n-rrkjus_psl.1.0.0.UPF
     MD5 check sum: fa25574f73a70a4139f2adfbefec430c
     Pseudo is Ultrasoft + core correction, Zval =  4.0
     Generated using "atomic" code by A. Dal Corso v.6.3
     Using radial grid of 1141 points,  6 beta functions with: 
                l(1) =   0
                l(2) =   0
                l(3) =   1
                l(4) =   1
                l(5) =   2
                l(6) =   2
     Q(r) pseudized with 0 coefficients 


     atomic species   valence    mass     pseudopotential
        Si             4.00    28.08550     Si( 1.00)

     48 Sym. Ops., with inversion, found (24 have fractional translation)



   Cartesian axes

     site n.     atom                  positions (alat units)
         1           Si  tau(   1) = (   0.0000000   0.0000000   0.0000000  )
         2           Si  tau(   2) = (  -0.2500000   0.2500000   0.2500000  )

     number of k points=    29  Methfessel-Paxton smearing, width (Ry)=  0.0100
                       cart. coord. in units 2pi/alat
        k(    1) = (   0.0000000   0.0000000   0.0000000), wk =   0.0039062
        k(    2) = (  -0.1250000   0.1250000  -0.1250000), wk =   0.0312500
        k(    3) = (  -0.2500000   0.2500000  -0.2500000), wk =   0.0312500
        k(    4) = (  -0.3750000   0.3750000  -0.3750000), wk =   0.0312500
        k(    5) = (   0.5000000  -0.5000000   0.5000000), wk =   0.0156250
        k(    6) = (   0.0000000   0.2500000   0.0000000), wk =   0.0234375
        k(    7) = (  -0.1250000   0.3750000  -0.1250000), wk =   0.0937500
        k(    8) = (  -0.2500000   0.5000000  -0.2500000), wk =   0.0937500
        k(    9) = (   0.6250000  -0.3750000   0.6250000), wk =   0.0937500
        k(   10) = (   0.5000000  -0.2500000   0.5000000), wk =   0.0937500
        k(   11) = (   0.3750000  -0.1250000   0.3750000), wk =   0.0937500
        k(   12) = (   0.2500000   0.0000000   0.2500000), wk =   0.0468750
        k(   13) = (   0.0000000   0.5000000   0.0000000), wk =   0.0234375
        k(   14) = (  -0.1250000   0.6250000  -0.1250000), wk =   0.0937500
        k(   15) = (   0.7500000  -0.2500000   0.7500000), wk =   0.0937500
        k(   16) = (   0.6250000  -0.1250000   0.6250000), wk =   0.0937500
        k(   17) = (   0.5000000   0.0000000   0.5000000), wk =   0.0468750
        k(   18) = (   0.0000000   0.7500000   0.0000000), wk =   0.0234375
        k(   19) = (   0.8750000  -0.1250000   0.8750000), wk =   0.0937500
        k(   20) = (   0.7500000   0.0000000   0.7500000), wk =   0.0468750
        k(   21) = (   0.0000000  -1.0000000   0.0000000), wk =   0.0117188
        k(   22) = (  -0.2500000   0.5000000   0.0000000), wk =   0.0937500
        k(   23) = (   0.6250000  -0.3750000   0.8750000), wk =   0.1875000
        k(   24) = (   0.5000000  -0.2500000   0.7500000), wk =   0.0937500
        k(   25) = (   0.7500000  -0.2500000   1.0000000), wk =   0.0937500
        k(   26) = (   0.6250000  -0.1250000   0.8750000), wk =   0.1875000
        k(   27) = (   0.5000000   0.0000000   0.7500000), wk =   0.0937500
        k(   28) = (  -0.2500000  -1.0000000   0.0000000), wk =   0.0468750
        k(   29) = (  -0.5000000  -1.0000000   0.0000000), wk =   0.0234375

     Dense  grid:     9185 G-vectors     FFT dimensions: (  32,  32,  32)

     Smooth grid:     3143 G-vectors     FFT dimensions: (  24,  24,  24)

     Estimated max dynamical RAM per process >      35.65 MB

     Initial potential from superposition of free atoms

     starting charge    7.99888, renormalised to    8.00000
     Starting wfcs are    8 randomized atomic wfcs

     total cpu time spent up to now is        1.1 secs

     Self-consistent Calculation

     iteration #  1     ecut=    30.00 Ry     beta= 0.70
     Davidson diagonalization with overlap
     ethr =  1.00E-02,  avg # of iterations =  5.7

     total cpu time spent up to now is        1.8 secs

     total energy              =     -22.27837676 Ry
     estimated scf accuracy    <       0.10360799 Ry

     iteration #  2     ecut=    30.00 Ry     beta= 0.70
     Davidson diagonalization with overlap
     ethr =  1.30E-03,  avg # of iterations =  1.1

     total cpu time spent up to now is        2.1 secs

     total energy              =     -22.28915133 Ry
     estimated scf accuracy    <       0.00144431 Ry

     iteration #  3     ecut=    30.00 Ry     beta= 0.70
     Davidson diagonalization with overlap
     ethr =  1.81E-05,  avg # of iterations =  6.5

     total cpu time spent up to now is        2.6 secs

     total energy              =     -22.28952880 Ry
     estimated scf accuracy    <       0.00007368 Ry

     iteration #  4     ecut=    30.00 Ry     beta= 0.70
     Davidson diagonalization with overlap
     ethr =  9.21E-07,  avg # of iterations =  3.0

     total cpu time spent up to now is        3.0 secs

     End of self-consistent calculation

          k = 0.0000 0.0000 0.0000 (   411 PWs)   bands (ev):

    -2.6178  15.0078  15.0078  15.0078  17.5554  17.5554  17.5554  22.7168

          k =-0.1250 0.1250-0.1250 (   384 PWs)   bands (ev):

    -2.2802  12.6538  14.4836  14.4836  18.3369  18.3369  18.4642  21.9314

          k =-0.2500 0.2500-0.2500 (   392 PWs)   bands (ev):

    -1.2783   9.1338  13.8037  13.8037  18.5603  18.5603  18.7792  22.3187

          k =-0.3750 0.3750-0.3750 (   401 PWs)   bands (ev):

     0.3331   5.8562  13.4214  13.4214  17.6936  17.6936  18.7667  23.6805

          k = 0.5000-0.5000 0.5000 (   392 PWs)   bands (ev):

     1.8841   3.7327  13.3116  13.3116  17.3022  17.3022  18.7585  23.2270

          k = 0.0000 0.2500 0.0000 (   391 PWs)   bands (ev):

    -2.1675  13.4265  13.4265  13.9527  16.6618  19.6629  19.6629  20.0436

          k =-0.1250 0.3750-0.1250 (   392 PWs)   bands (ev):

    -1.3862  10.4885  12.6172  13.4390  16.8610  18.8475  20.5639  20.6800

          k =-0.2500 0.5000-0.2500 (   397 PWs)   bands (ev):

     0.0308   7.1389  12.2871  12.5042  16.4998  19.7066  19.8898  21.6873

          k = 0.6250-0.3750 0.6250 (   397 PWs)   bands (ev):

     1.8613   4.3762  11.6771  12.4550  16.4682  18.7582  20.1408  24.3682

          k = 0.5000-0.2500 0.5000 (   399 PWs)   bands (ev):

     1.2556   5.1728  11.2004  13.0641  17.1467  18.3377  20.0612  24.2840

          k = 0.3750-0.1250 0.3750 (   395 PWs)   bands (ev):

    -0.5092   8.2323  11.2048  13.9639  18.3559  18.5449  19.8963  21.2897

          k = 0.2500 0.0000 0.2500 (   389 PWs)   bands (ev):

    -1.7207  11.4823  11.9074  14.7672  18.3876  19.2653  19.3441  20.3961

          k = 0.0000 0.5000 0.0000 (   415 PWs)   bands (ev):

    -0.8286  11.3408  11.6472  11.6472  15.1342  16.4630  22.8780  22.8780

          k =-0.1250 0.6250-0.1250 (   401 PWs)   bands (ev):

     0.3747   8.7080  10.4810  11.1724  15.0495  16.8142  22.8043  23.8393

          k = 0.7500-0.2500 0.7500 (   399 PWs)   bands (ev):

     2.1273   5.8737   9.1144  11.2379  15.0443  19.5124  21.7562  24.1171

          k = 0.6250-0.1250 0.6250 (   396 PWs)   bands (ev):

     2.7010   5.1584   8.2608  11.8296  15.6868  21.0319  21.6265  24.2086

          k = 0.5000 0.0000 0.5000 (   407 PWs)   bands (ev):

     0.8875   7.6482   8.2309  12.8641  16.9083  20.8337  20.8839  21.4756

          k = 0.0000 0.7500 0.0000 (   395 PWs)   bands (ev):

     1.3590   7.8204  10.5270  10.5270  14.0407  14.4343  26.0658  26.0658

          k = 0.8750-0.1250 0.8750 (   402 PWs)   bands (ev):

     2.9334   6.0913   8.6379  10.4263  14.0725  15.9424  25.4282  26.7875

          k = 0.7500 0.0000 0.7500 (   399 PWs)   bands (ev):

     4.2250   5.1623   6.7242  10.8752  14.5766  19.2212  24.2508  25.0274

          k = 0.0000-1.0000 0.0000 (   388 PWs)   bands (ev):

     4.3096   4.3096  10.1487  10.1487  13.7411  13.7411  28.2026  28.2026

          k =-0.2500 0.5000 0.0000 (   397 PWs)   bands (ev):

    -0.3939   9.5154  10.0858  12.7056  17.3718  17.9194  20.4492  22.3547

          k = 0.6250-0.3750 0.8750 (   400 PWs)   bands (ev):

     1.2026   6.6055   9.6259  11.5287  17.3147  18.9166  20.5929  23.1587

          k = 0.5000-0.2500 0.7500 (   394 PWs)   bands (ev):

     2.7490   4.5190   9.6747  10.9522  17.2975  18.5897  21.9674  24.7962

          k = 0.7500-0.2500 1.0000 (   397 PWs)   bands (ev):

     1.7642   7.5777   8.9488   9.7272  16.3579  16.5025  22.4670  25.6724

          k = 0.6250-0.1250 0.8750 (   399 PWs)   bands (ev):

     3.5633   5.6425   7.6080   9.4294  16.6559  19.3074  21.7342  24.4607

          k = 0.5000 0.0000 0.7500 (   400 PWs)   bands (ev):

     2.9069   6.3073   7.1686  10.2001  17.3752  20.1431  21.0123  23.6498

          k =-0.2500-1.0000 0.0000 (   398 PWs)   bands (ev):

     4.6200   4.6200   8.6764   8.6764  16.0240  16.0240  25.1911  25.1911

          k =-0.5000-1.0000 0.0000 (   396 PWs)   bands (ev):

     5.0828   5.0828   7.5226   7.5226  19.0881  19.0881  21.6348  21.6348

     the Fermi energy is    14.1188 ev

!    total energy              =     -22.28953734 Ry
     estimated scf accuracy    <       0.00000011 Ry
     smearing contrib. (-TS)   =      -0.00001945 Ry
     internal energy E=F+TS    =     -22.28951790 Ry

     The total energy is F=E-TS. E is the sum of the following terms:
     one-electron contribution =      11.12313167 Ry
     hartree contribution      =       0.56228625 Ry
     xc contribution           =     -13.24351207 Ry
     ewald contribution        =     -20.73142375 Ry

     convergence has been achieved in   4 iterations

     Forces acting on atoms (cartesian axes, Ry/au):

     atom    1 type  1   force =     0.00000000    0.00000000    0.00000000
     atom    2 type  1   force =    -0.00000000   -0.00000000   -0.00000000

     Total force =     0.000000     Total SCF correction =     0.000000

     BFGS Geometry Optimization

     bfgs converged in   1 scf cycles and   0 bfgs steps
     (criteria: energy <  1.0E-04 Ry, force <  1.0E-03 Ry/Bohr)

     End of BFGS Geometry Optimization

     Final energy   =     -22.2895373446 Ry
Begin final coordinates

ATOMIC_POSITIONS (crystal)
Si            0.0000000000        0.0000000000        0.0000000000
Si            0.2500000000        0.2500000000        0.2500000000
End final coordinates



     Writing output data file /home/jesus/Documentos/Nanociencia_DFT/test.save/
 
     init_run     :      0.43s CPU      0.44s WALL (       1 calls)
     electrons    :      1.81s CPU      1.86s WALL (       1 calls)
     forces       :      0.06s CPU      0.06s WALL (       1 calls)

     Called by init_run:
     wfcinit      :      0.14s CPU      0.14s WALL (       1 calls)
     potinit      :      0.01s CPU      0.02s WALL (       1 calls)
     hinit0       :      0.24s CPU      0.24s WALL (       1 calls)

     Called by electrons:
     c_bands      :      1.37s CPU      1.39s WALL (       4 calls)
     sum_band     :      0.31s CPU      0.32s WALL (       4 calls)
     v_of_rho     :      0.07s CPU      0.07s WALL (       5 calls)
     newd         :      0.09s CPU      0.11s WALL (       5 calls)
     mix_rho      :      0.00s CPU      0.00s WALL (       4 calls)

     Called by c_bands:
     init_us_2    :      0.04s CPU      0.05s WALL (     290 calls)
     cegterg      :      1.21s CPU      1.23s WALL (     116 calls)

     Called by *egterg:
     cdiaghg      :      0.08s CPU      0.08s WALL (     589 calls)
     h_psi        :      1.14s CPU      1.15s WALL (     618 calls)
     s_psi        :      0.03s CPU      0.03s WALL (     618 calls)
     g_psi        :      0.00s CPU      0.00s WALL (     473 calls)

     Called by h_psi:
     h_psi:calbec :      0.04s CPU      0.04s WALL (     618 calls)
     vloc_psi     :      1.06s CPU      1.07s WALL (     618 calls)
     add_vuspsi   :      0.03s CPU      0.03s WALL (     618 calls)

     General routines
     calbec       :      0.06s CPU      0.06s WALL (     850 calls)
     fft          :      0.02s CPU      0.02s WALL (      74 calls)
     ffts         :      0.00s CPU      0.00s WALL (       9 calls)
     fftw         :      1.07s CPU      1.09s WALL (    6984 calls)
     interpolate  :      0.00s CPU      0.00s WALL (       5 calls)
 
     Parallel routines
 
     PWSCF        :      2.95s CPU      3.04s WALL

 
   This run was terminated on:  22:33: 9  15Mar2021            

=------------------------------------------------------------------------------=
   JOB DONE.
=------------------------------------------------------------------------------=
