
     Program PWSCF v.6.6 starts on 15Mar2021 at 22:34: 1 

     This program is part of the open-source Quantum ESPRESSO suite
     for quantum simulation of materials; please cite
         "P. Giannozzi et al., J. Phys.:Condens. Matter 21 395502 (2009);
         "P. Giannozzi et al., J. Phys.:Condens. Matter 29 465901 (2017);
          URL http://www.quantum-espresso.org", 
     in publications or presentations arising from this work. More details at
     http://www.quantum-espresso.org/quote

     Parallel version (MPI), running on     1 processors

     MPI processes distributed on     1 nodes
     Fft bands division:     nmany     =       1
     Waiting for input...
     Reading input from standard input
Warning: card &CELL ignored
Warning: card   CELL_DYNAMICS='BFGS', ignored
Warning: card   CELL_DOFREE='ALL', ignored
Warning: card / ignored

     Current dimensions of program PWSCF are:
     Max number of different atomic species (ntypx) = 10
     Max number of k-points (npk) =  40000
     Max angular momentum in pseudopotentials (lmaxx) =  3

     Subspace diagonalization in iterative solution of the eigenvalue problem:
     a serial algorithm will be used

 
     G-vector sticks info
     --------------------
     sticks:   dense  smooth     PW     G-vecs:    dense   smooth      PW
     Sum         955     475    151                19603     6879    1243
 


     bravais-lattice index     =            2
     lattice parameter (alat)  =      10.7714  a.u.
     unit-cell volume          =     312.4361 (a.u.)^3
     number of atoms/cell      =            2
     number of atomic types    =            1
     number of electrons       =         8.00
     number of Kohn-Sham states=            8
     kinetic-energy cutoff     =      30.0000  Ry
     charge density cutoff     =     240.0000  Ry
     convergence threshold     =      1.0E-06
     mixing beta               =       0.7000
     number of iterations used =            8  plain     mixing
     Exchange-correlation= PBE
                           (   1   4   3   4   0   0   0)
     nstep                     =            1


     celldm(1)=  10.771439  celldm(2)=   0.000000  celldm(3)=   0.000000
     celldm(4)=   0.000000  celldm(5)=   0.000000  celldm(6)=   0.000000

     crystal axes: (cart. coord. in units of alat)
               a(1) = (  -0.500000   0.000000   0.500000 )  
               a(2) = (   0.000000   0.500000   0.500000 )  
               a(3) = (  -0.500000   0.500000   0.000000 )  

     reciprocal axes: (cart. coord. in units 2 pi/alat)
               b(1) = ( -1.000000 -1.000000  1.000000 )  
               b(2) = (  1.000000  1.000000  1.000000 )  
               b(3) = ( -1.000000  1.000000 -1.000000 )  


     PseudoPot. # 1 for Si read from file:
     /home/jesus/Documentos/Nanociencia_DFT/pseudopotenciales/Si.pbe-n-rrkjus_psl.1.0.0.UPF
     MD5 check sum: fa25574f73a70a4139f2adfbefec430c
     Pseudo is Ultrasoft + core correction, Zval =  4.0
     Generated using "atomic" code by A. Dal Corso v.6.3
     Using radial grid of 1141 points,  6 beta functions with: 
                l(1) =   0
                l(2) =   0
                l(3) =   1
                l(4) =   1
                l(5) =   2
                l(6) =   2
     Q(r) pseudized with 0 coefficients 


     atomic species   valence    mass     pseudopotential
        Si             4.00    28.08550     Si( 1.00)

     48 Sym. Ops., with inversion, found (24 have fractional translation)



   Cartesian axes

     site n.     atom                  positions (alat units)
         1           Si  tau(   1) = (   0.0000000   0.0000000   0.0000000  )
         2           Si  tau(   2) = (  -0.2500000   0.2500000   0.2500000  )

     number of k points=    29  Methfessel-Paxton smearing, width (Ry)=  0.0100
                       cart. coord. in units 2pi/alat
        k(    1) = (   0.0000000   0.0000000   0.0000000), wk =   0.0039062
        k(    2) = (  -0.1250000   0.1250000  -0.1250000), wk =   0.0312500
        k(    3) = (  -0.2500000   0.2500000  -0.2500000), wk =   0.0312500
        k(    4) = (  -0.3750000   0.3750000  -0.3750000), wk =   0.0312500
        k(    5) = (   0.5000000  -0.5000000   0.5000000), wk =   0.0156250
        k(    6) = (   0.0000000   0.2500000   0.0000000), wk =   0.0234375
        k(    7) = (  -0.1250000   0.3750000  -0.1250000), wk =   0.0937500
        k(    8) = (  -0.2500000   0.5000000  -0.2500000), wk =   0.0937500
        k(    9) = (   0.6250000  -0.3750000   0.6250000), wk =   0.0937500
        k(   10) = (   0.5000000  -0.2500000   0.5000000), wk =   0.0937500
        k(   11) = (   0.3750000  -0.1250000   0.3750000), wk =   0.0937500
        k(   12) = (   0.2500000   0.0000000   0.2500000), wk =   0.0468750
        k(   13) = (   0.0000000   0.5000000   0.0000000), wk =   0.0234375
        k(   14) = (  -0.1250000   0.6250000  -0.1250000), wk =   0.0937500
        k(   15) = (   0.7500000  -0.2500000   0.7500000), wk =   0.0937500
        k(   16) = (   0.6250000  -0.1250000   0.6250000), wk =   0.0937500
        k(   17) = (   0.5000000   0.0000000   0.5000000), wk =   0.0468750
        k(   18) = (   0.0000000   0.7500000   0.0000000), wk =   0.0234375
        k(   19) = (   0.8750000  -0.1250000   0.8750000), wk =   0.0937500
        k(   20) = (   0.7500000   0.0000000   0.7500000), wk =   0.0468750
        k(   21) = (   0.0000000  -1.0000000   0.0000000), wk =   0.0117188
        k(   22) = (  -0.2500000   0.5000000   0.0000000), wk =   0.0937500
        k(   23) = (   0.6250000  -0.3750000   0.8750000), wk =   0.1875000
        k(   24) = (   0.5000000  -0.2500000   0.7500000), wk =   0.0937500
        k(   25) = (   0.7500000  -0.2500000   1.0000000), wk =   0.0937500
        k(   26) = (   0.6250000  -0.1250000   0.8750000), wk =   0.1875000
        k(   27) = (   0.5000000   0.0000000   0.7500000), wk =   0.0937500
        k(   28) = (  -0.2500000  -1.0000000   0.0000000), wk =   0.0468750
        k(   29) = (  -0.5000000  -1.0000000   0.0000000), wk =   0.0234375

     Dense  grid:    19603 G-vectors     FFT dimensions: (  40,  40,  40)

     Smooth grid:     6879 G-vectors     FFT dimensions: (  32,  32,  32)

     Estimated max dynamical RAM per process >      74.33 MB

     Initial potential from superposition of free atoms

     starting charge    7.99888, renormalised to    8.00000
     Starting wfcs are    8 randomized atomic wfcs

     total cpu time spent up to now is        1.4 secs

     Self-consistent Calculation

     iteration #  1     ecut=    30.00 Ry     beta= 0.70
     Davidson diagonalization with overlap
     ethr =  1.00E-02,  avg # of iterations =  3.2

     Threshold (ethr) on eigenvalues was too large:
     Diagonalizing with lowered threshold

     Davidson diagonalization with overlap
     ethr =  5.04E-04,  avg # of iterations =  2.3

     total cpu time spent up to now is        2.8 secs

     total energy              =     -22.82679439 Ry
     estimated scf accuracy    <       0.04363657 Ry

     iteration #  2     ecut=    30.00 Ry     beta= 0.70
     Davidson diagonalization with overlap
     ethr =  5.45E-04,  avg # of iterations =  1.0

     total cpu time spent up to now is        3.5 secs

     total energy              =     -22.82802673 Ry
     estimated scf accuracy    <       0.00228895 Ry

     iteration #  3     ecut=    30.00 Ry     beta= 0.70
     Davidson diagonalization with overlap
     ethr =  2.86E-05,  avg # of iterations =  5.0

     total cpu time spent up to now is        4.4 secs

     total energy              =     -22.82814148 Ry
     estimated scf accuracy    <       0.00003074 Ry

     iteration #  4     ecut=    30.00 Ry     beta= 0.70
     Davidson diagonalization with overlap
     ethr =  3.84E-07,  avg # of iterations =  3.3

     total cpu time spent up to now is        5.2 secs

     End of self-consistent calculation

          k = 0.0000 0.0000 0.0000 (   893 PWs)   bands (ev):

    -6.2423   4.7819   4.7819   4.7819   6.5606   7.2727   7.2727   7.2727

          k =-0.1250 0.1250-0.1250 (   887 PWs)   bands (ev):

    -6.0628   3.1820   4.5328   4.5328   6.7355   7.6407   7.6407   8.4366

          k =-0.2500 0.2500-0.2500 (   878 PWs)   bands (ev):

    -5.5419   1.0723   4.1128   4.1128   6.2900   8.1520   8.1520  10.5769

          k =-0.3750 0.3750-0.3750 (   863 PWs)   bands (ev):

    -4.7752  -0.7090   3.8135   3.8135   5.9403   8.2118   8.2119  12.2289

          k = 0.5000-0.5000 0.5000 (   862 PWs)   bands (ev):

    -4.2551  -1.5743   3.7098   3.7098   5.8162   8.1514   8.1515  12.2908

          k = 0.0000 0.2500 0.0000 (   889 PWs)   bands (ev):

    -6.0021   3.2726   4.0996   4.0996   6.7924   7.9177   8.2515   8.2515

          k =-0.1250 0.3750-0.1250 (   868 PWs)   bands (ev):

    -5.5910   1.6210   3.6476   3.6505   6.8730   7.8580   8.9552   9.3596

          k =-0.2500 0.5000-0.2500 (   862 PWs)   bands (ev):

    -4.8850  -0.1782   3.1091   3.4001   6.8129   8.0920   9.0634  10.0461

          k = 0.6250-0.3750 0.6250 (   861 PWs)   bands (ev):

    -4.1682  -1.4253   2.7178   3.4089   6.6771   8.1472   8.8036  11.6857

          k = 0.5000-0.2500 0.5000 (   869 PWs)   bands (ev):

    -4.3669  -1.1153   2.5779   3.6597   6.7468   8.3107   8.5841  12.0358

          k = 0.3750-0.1250 0.3750 (   869 PWs)   bands (ev):

    -5.1495   0.3943   2.7516   4.0860   7.0114   8.3182   8.4797  10.4508

          k = 0.2500 0.0000 0.2500 (   887 PWs)   bands (ev):

    -5.7677   2.1069   3.3992   4.5080   7.2238   7.7767   7.9371   9.5217

          k = 0.0000 0.5000 0.0000 (   849 PWs)   bands (ev):

    -5.2908   1.2140   3.1499   3.1499   6.0298   7.8170  10.0675  10.0676

          k =-0.1250 0.6250-0.1250 (   862 PWs)   bands (ev):

    -4.6708  -0.0336   2.4664   2.8646   6.2374   7.6575  10.1866  10.6049

          k = 0.7500-0.2500 0.7500 (   863 PWs)   bands (ev):

    -3.8828  -1.2583   1.7069   2.8601   6.4026   9.0424   9.9069  10.3833

          k = 0.6250-0.1250 0.6250 (   865 PWs)   bands (ev):

    -3.7227  -1.4641   1.3210   3.1324   6.6496   9.7634   9.9699  11.2516

          k = 0.5000 0.0000 0.5000 (   867 PWs)   bands (ev):

    -4.4629  -0.4720   1.5592   3.6125   7.0790   9.2659   9.5627  10.2163

          k = 0.0000 0.7500 0.0000 (   866 PWs)   bands (ev):

    -4.1388  -0.7822   2.5136   2.5136   5.6063   6.5133  12.0922  12.0923

          k = 0.8750-0.1250 0.8750 (   861 PWs)   bands (ev):

    -3.3604  -1.7431   1.8337   2.4436   5.8858   6.8348  12.2628  12.3738

          k = 0.7500 0.0000 0.7500 (   874 PWs)   bands (ev):

    -3.0180  -2.0673   1.1195   2.6666   6.1495   8.7625  11.6152  11.9698

          k = 0.0000-1.0000 0.0000 (   846 PWs)   bands (ev):

    -2.6049  -2.6049   2.2947   2.2947   5.7381   5.7381  13.6834  13.6834

          k =-0.2500 0.5000 0.0000 (   859 PWs)   bands (ev):

    -5.0773   0.5862   2.4527   3.5257   7.1781   8.0776   9.0285   9.8561

          k = 0.6250-0.3750 0.8750 (   866 PWs)   bands (ev):

    -4.3131  -0.7561   1.8779   3.1118   7.4874   8.1475   9.5025  10.3355

          k = 0.5000-0.2500 0.7500 (   870 PWs)   bands (ev):

    -3.7761  -1.5383   1.7355   2.9234   7.4998   7.9850  10.2148  11.5356

          k = 0.7500-0.2500 1.0000 (   863 PWs)   bands (ev):

    -3.9744  -0.9753   1.8890   2.4170   6.7633   7.4545  10.0564  12.0440

          k = 0.6250-0.1250 0.8750 (   866 PWs)   bands (ev):

    -3.2363  -1.8168   1.3068   2.2477   7.1763   8.9336   9.6170  11.5673

          k = 0.5000 0.0000 0.7500 (   864 PWs)   bands (ev):

    -3.5414  -1.4890   1.1682   2.5643   7.5703   9.0927   9.6427  11.2880

          k =-0.2500-1.0000 0.0000 (   870 PWs)   bands (ev):

    -2.5525  -2.5525   1.8521   1.8521   6.8247   6.8247  11.9446  11.9447

          k =-0.5000-1.0000 0.0000 (   876 PWs)   bands (ev):

    -2.4965  -2.4965   1.5050   1.5050   9.0526   9.0526   9.2511   9.2511

     the Fermi energy is     4.8941 ev

!    total energy              =     -22.82814903 Ry
     estimated scf accuracy    <       0.00000007 Ry
     smearing contrib. (-TS)   =       0.00000434 Ry
     internal energy E=F+TS    =     -22.82815337 Ry

     The total energy is F=E-TS. E is the sum of the following terms:
     one-electron contribution =       4.08295890 Ry
     hartree contribution      =       1.23327047 Ry
     xc contribution           =     -12.14117845 Ry
     ewald contribution        =     -16.00320430 Ry

     convergence has been achieved in   4 iterations

     Forces acting on atoms (cartesian axes, Ry/au):

     atom    1 type  1   force =     0.00000000    0.00000000    0.00000000
     atom    2 type  1   force =    -0.00000000    0.00000000   -0.00000000

     Total force =     0.000000     Total SCF correction =     0.000000

     BFGS Geometry Optimization

     bfgs converged in   1 scf cycles and   0 bfgs steps
     (criteria: energy <  1.0E-04 Ry, force <  1.0E-03 Ry/Bohr)

     End of BFGS Geometry Optimization

     Final energy   =     -22.8281490337 Ry
Begin final coordinates

ATOMIC_POSITIONS (crystal)
Si            0.0000000000        0.0000000000        0.0000000000
Si            0.2500000000        0.2500000000        0.2500000000
End final coordinates



     Writing output data file /home/jesus/Documentos/Nanociencia_DFT/test.save/
 
     init_run     :      0.60s CPU      0.68s WALL (       1 calls)
     electrons    :      3.45s CPU      3.76s WALL (       1 calls)
     forces       :      0.13s CPU      0.15s WALL (       1 calls)

     Called by init_run:
     wfcinit      :      0.19s CPU      0.21s WALL (       1 calls)
     potinit      :      0.04s CPU      0.06s WALL (       1 calls)
     hinit0       :      0.28s CPU      0.28s WALL (       1 calls)

     Called by electrons:
     c_bands      :      2.50s CPU      2.54s WALL (       5 calls)
     sum_band     :      0.66s CPU      0.81s WALL (       5 calls)
     v_of_rho     :      0.16s CPU      0.17s WALL (       5 calls)
     newd         :      0.22s CPU      0.39s WALL (       5 calls)
     mix_rho      :      0.01s CPU      0.01s WALL (       5 calls)

     Called by c_bands:
     init_us_2    :      0.10s CPU      0.11s WALL (     348 calls)
     cegterg      :      2.07s CPU      2.11s WALL (     145 calls)

     Called by *egterg:
     cdiaghg      :      0.07s CPU      0.07s WALL (     549 calls)
     h_psi        :      1.96s CPU      2.01s WALL (     607 calls)
     s_psi        :      0.05s CPU      0.05s WALL (     607 calls)
     g_psi        :      0.01s CPU      0.01s WALL (     433 calls)

     Called by h_psi:
     h_psi:calbec :      0.07s CPU      0.07s WALL (     607 calls)
     vloc_psi     :      1.82s CPU      1.86s WALL (     607 calls)
     add_vuspsi   :      0.06s CPU      0.06s WALL (     607 calls)

     General routines
     calbec       :      0.10s CPU      0.11s WALL (     868 calls)
     fft          :      0.06s CPU      0.06s WALL (      75 calls)
     ffts         :      0.00s CPU      0.00s WALL (      10 calls)
     fftw         :      1.79s CPU      1.82s WALL (    7768 calls)
     interpolate  :      0.01s CPU      0.01s WALL (       5 calls)
 
     Parallel routines
 
     PWSCF        :      4.89s CPU      5.32s WALL

 
   This run was terminated on:  22:34: 6  15Mar2021            

=------------------------------------------------------------------------------=
   JOB DONE.
=------------------------------------------------------------------------------=
