
     Program PWSCF v.6.6 starts on 15Mar2021 at 22:33:22 

     This program is part of the open-source Quantum ESPRESSO suite
     for quantum simulation of materials; please cite
         "P. Giannozzi et al., J. Phys.:Condens. Matter 21 395502 (2009);
         "P. Giannozzi et al., J. Phys.:Condens. Matter 29 465901 (2017);
          URL http://www.quantum-espresso.org", 
     in publications or presentations arising from this work. More details at
     http://www.quantum-espresso.org/quote

     Parallel version (MPI), running on     1 processors

     MPI processes distributed on     1 nodes
     Fft bands division:     nmany     =       1
     Waiting for input...
     Reading input from standard input
Warning: card &CELL ignored
Warning: card   CELL_DYNAMICS='BFGS', ignored
Warning: card   CELL_DOFREE='ALL', ignored
Warning: card / ignored

     Current dimensions of program PWSCF are:
     Max number of different atomic species (ntypx) = 10
     Max number of k-points (npk) =  40000
     Max angular momentum in pseudopotentials (lmaxx) =  3

     Subspace diagonalization in iterative solution of the eigenvalue problem:
     a serial algorithm will be used

 
     G-vector sticks info
     --------------------
     sticks:   dense  smooth     PW     G-vecs:    dense   smooth      PW
     Sum         703     361    121                12387     4477     869
 


     bravais-lattice index     =            2
     lattice parameter (alat)  =       9.2597  a.u.
     unit-cell volume          =     198.4837 (a.u.)^3
     number of atoms/cell      =            2
     number of atomic types    =            1
     number of electrons       =         8.00
     number of Kohn-Sham states=            8
     kinetic-energy cutoff     =      30.0000  Ry
     charge density cutoff     =     240.0000  Ry
     convergence threshold     =      1.0E-06
     mixing beta               =       0.7000
     number of iterations used =            8  plain     mixing
     Exchange-correlation= PBE
                           (   1   4   3   4   0   0   0)
     nstep                     =            1


     celldm(1)=   9.259658  celldm(2)=   0.000000  celldm(3)=   0.000000
     celldm(4)=   0.000000  celldm(5)=   0.000000  celldm(6)=   0.000000

     crystal axes: (cart. coord. in units of alat)
               a(1) = (  -0.500000   0.000000   0.500000 )  
               a(2) = (   0.000000   0.500000   0.500000 )  
               a(3) = (  -0.500000   0.500000   0.000000 )  

     reciprocal axes: (cart. coord. in units 2 pi/alat)
               b(1) = ( -1.000000 -1.000000  1.000000 )  
               b(2) = (  1.000000  1.000000  1.000000 )  
               b(3) = ( -1.000000  1.000000 -1.000000 )  


     PseudoPot. # 1 for Si read from file:
     /home/jesus/Documentos/Nanociencia_DFT/pseudopotenciales/Si.pbe-n-rrkjus_psl.1.0.0.UPF
     MD5 check sum: fa25574f73a70a4139f2adfbefec430c
     Pseudo is Ultrasoft + core correction, Zval =  4.0
     Generated using "atomic" code by A. Dal Corso v.6.3
     Using radial grid of 1141 points,  6 beta functions with: 
                l(1) =   0
                l(2) =   0
                l(3) =   1
                l(4) =   1
                l(5) =   2
                l(6) =   2
     Q(r) pseudized with 0 coefficients 


     atomic species   valence    mass     pseudopotential
        Si             4.00    28.08550     Si( 1.00)

     48 Sym. Ops., with inversion, found (24 have fractional translation)



   Cartesian axes

     site n.     atom                  positions (alat units)
         1           Si  tau(   1) = (   0.0000000   0.0000000   0.0000000  )
         2           Si  tau(   2) = (  -0.2500000   0.2500000   0.2500000  )

     number of k points=    29  Methfessel-Paxton smearing, width (Ry)=  0.0100
                       cart. coord. in units 2pi/alat
        k(    1) = (   0.0000000   0.0000000   0.0000000), wk =   0.0039062
        k(    2) = (  -0.1250000   0.1250000  -0.1250000), wk =   0.0312500
        k(    3) = (  -0.2500000   0.2500000  -0.2500000), wk =   0.0312500
        k(    4) = (  -0.3750000   0.3750000  -0.3750000), wk =   0.0312500
        k(    5) = (   0.5000000  -0.5000000   0.5000000), wk =   0.0156250
        k(    6) = (   0.0000000   0.2500000   0.0000000), wk =   0.0234375
        k(    7) = (  -0.1250000   0.3750000  -0.1250000), wk =   0.0937500
        k(    8) = (  -0.2500000   0.5000000  -0.2500000), wk =   0.0937500
        k(    9) = (   0.6250000  -0.3750000   0.6250000), wk =   0.0937500
        k(   10) = (   0.5000000  -0.2500000   0.5000000), wk =   0.0937500
        k(   11) = (   0.3750000  -0.1250000   0.3750000), wk =   0.0937500
        k(   12) = (   0.2500000   0.0000000   0.2500000), wk =   0.0468750
        k(   13) = (   0.0000000   0.5000000   0.0000000), wk =   0.0234375
        k(   14) = (  -0.1250000   0.6250000  -0.1250000), wk =   0.0937500
        k(   15) = (   0.7500000  -0.2500000   0.7500000), wk =   0.0937500
        k(   16) = (   0.6250000  -0.1250000   0.6250000), wk =   0.0937500
        k(   17) = (   0.5000000   0.0000000   0.5000000), wk =   0.0468750
        k(   18) = (   0.0000000   0.7500000   0.0000000), wk =   0.0234375
        k(   19) = (   0.8750000  -0.1250000   0.8750000), wk =   0.0937500
        k(   20) = (   0.7500000   0.0000000   0.7500000), wk =   0.0468750
        k(   21) = (   0.0000000  -1.0000000   0.0000000), wk =   0.0117188
        k(   22) = (  -0.2500000   0.5000000   0.0000000), wk =   0.0937500
        k(   23) = (   0.6250000  -0.3750000   0.8750000), wk =   0.1875000
        k(   24) = (   0.5000000  -0.2500000   0.7500000), wk =   0.0937500
        k(   25) = (   0.7500000  -0.2500000   1.0000000), wk =   0.0937500
        k(   26) = (   0.6250000  -0.1250000   0.8750000), wk =   0.1875000
        k(   27) = (   0.5000000   0.0000000   0.7500000), wk =   0.0937500
        k(   28) = (  -0.2500000  -1.0000000   0.0000000), wk =   0.0468750
        k(   29) = (  -0.5000000  -1.0000000   0.0000000), wk =   0.0234375

     Dense  grid:    12387 G-vectors     FFT dimensions: (  36,  36,  36)

     Smooth grid:     4477 G-vectors     FFT dimensions: (  24,  24,  24)

     Estimated max dynamical RAM per process >      47.87 MB

     Initial potential from superposition of free atoms

     starting charge    7.99888, renormalised to    8.00000
     Starting wfcs are    8 randomized atomic wfcs

     total cpu time spent up to now is        1.1 secs

     Self-consistent Calculation

     iteration #  1     ecut=    30.00 Ry     beta= 0.70
     Davidson diagonalization with overlap
     ethr =  1.00E-02,  avg # of iterations =  5.1

     total cpu time spent up to now is        1.6 secs

     total energy              =     -22.71853684 Ry
     estimated scf accuracy    <       0.08242886 Ry

     iteration #  2     ecut=    30.00 Ry     beta= 0.70
     Davidson diagonalization with overlap
     ethr =  1.03E-03,  avg # of iterations =  1.4

     total cpu time spent up to now is        2.0 secs

     total energy              =     -22.72419456 Ry
     estimated scf accuracy    <       0.00213212 Ry

     iteration #  3     ecut=    30.00 Ry     beta= 0.70
     Davidson diagonalization with overlap
     ethr =  2.67E-05,  avg # of iterations =  5.3

     total cpu time spent up to now is        2.5 secs

     total energy              =     -22.72444424 Ry
     estimated scf accuracy    <       0.00006605 Ry

     iteration #  4     ecut=    30.00 Ry     beta= 0.70
     Davidson diagonalization with overlap
     ethr =  8.26E-07,  avg # of iterations =  4.3

     total cpu time spent up to now is        3.0 secs

     End of self-consistent calculation

          k = 0.0000 0.0000 0.0000 (   537 PWs)   bands (ev):

    -4.4738   9.9200   9.9200   9.9200  12.5429  12.5429  12.5429  17.1131

          k =-0.1250 0.1250-0.1250 (   540 PWs)   bands (ev):

    -4.2103   8.0648   9.5282   9.5282  12.9990  13.1158  13.1158  17.9823

          k =-0.2500 0.2500-0.2500 (   549 PWs)   bands (ev):

    -3.4336   5.2155   8.9466   8.9466  12.8906  13.5749  13.5751  17.2193

          k =-0.3750 0.3750-0.3750 (   550 PWs)   bands (ev):

    -2.2224   2.6315   8.5711   8.5711  12.6438  13.1837  13.1837  18.2688

          k = 0.5000-0.5000 0.5000 (   568 PWs)   bands (ev):

    -1.2369   1.1747   8.4481   8.4481  12.5481  12.9490  12.9490  17.9534

          k = 0.0000 0.2500 0.0000 (   548 PWs)   bands (ev):

    -4.1220   8.7671   8.7822   8.7822  11.8286  14.1005  14.1005  15.4872

          k =-0.1250 0.3750-0.1250 (   553 PWs)   bands (ev):

    -3.5140   6.2386   8.1298   8.4744  12.0305  14.4449  14.7234  14.9683

          k =-0.2500 0.5000-0.2500 (   543 PWs)   bands (ev):

    -2.4312   3.5867   7.7407   7.8236  12.1025  14.2953  14.6176  15.8717

          k = 0.6250-0.3750 0.6250 (   551 PWs)   bands (ev):

    -1.1712   1.5698   7.1437   7.9005  12.0997  13.9916  14.1133  18.2741

          k = 0.5000-0.2500 0.5000 (   556 PWs)   bands (ev):

    -1.5534   2.1091   6.8455   8.3231  12.5421  13.7007  14.0666  18.6017

          k = 0.3750-0.1250 0.3750 (   553 PWs)   bands (ev):

    -2.8412   4.4465   6.9352   8.9855  13.2993  13.7151  14.1465  16.3270

          k = 0.2500 0.0000 0.2500 (   559 PWs)   bands (ev):

    -3.7746   6.9558   7.6523   9.6119  13.2321  13.7108  13.7836  15.9571

          k = 0.0000 0.5000 0.0000 (   560 PWs)   bands (ev):

    -3.0769   6.3699   7.3776   7.3776  10.6556  12.5736  16.6980  16.6981

          k =-0.1250 0.6250-0.1250 (   547 PWs)   bands (ev):

    -2.1472   4.4810   6.3856   6.9841  10.8298  12.4264  17.0299  17.3125

          k = 0.7500-0.2500 0.7500 (   550 PWs)   bands (ev):

    -0.8637   2.4512   5.2931   7.0116  10.9124  14.4532  16.3536  17.3005

          k = 0.6250-0.1250 0.6250 (   547 PWs)   bands (ev):

    -0.5217   2.0255   4.6553   7.4493  11.3800  15.8176  16.0713  18.3582

          k = 0.5000 0.0000 0.5000 (   548 PWs)   bands (ev):

    -1.7812   3.6950   4.8286   8.2122  12.3006  15.2929  15.7266  16.1732

          k = 0.0000 0.7500 0.0000 (   556 PWs)   bands (ev):

    -1.3746   3.5951   6.4715   6.4715   9.8922  10.6678  19.4715  19.4716

          k = 0.8750-0.1250 0.8750 (   554 PWs)   bands (ev):

    -0.1799   2.2182   5.2192   6.3826  10.0995  11.4909  19.3779  20.0572

          k = 0.7500 0.0000 0.7500 (   548 PWs)   bands (ev):

     0.5642   1.6138   3.9332   6.7263  10.4955  14.1682  18.6842  19.4532

          k = 0.0000-1.0000 0.0000 (   556 PWs)   bands (ev):

     0.9054   0.9054   6.1633   6.1633   9.8366   9.8366  22.8619  22.8621

          k =-0.2500 0.5000 0.0000 (   549 PWs)   bands (ev):

    -2.7460   5.1896   6.2326   8.0838  12.3851  13.6474  14.8360  16.3253

          k = 0.6250-0.3750 0.8750 (   554 PWs)   bands (ev):

    -1.5457   3.0734   5.6298   7.3229  12.7048  13.7403  15.3940  16.8767

          k = 0.5000-0.2500 0.7500 (   552 PWs)   bands (ev):

    -0.5543   1.6714   5.5616   6.9673  12.7242  13.4388  16.5130  18.2118

          k = 0.7500-0.2500 1.0000 (   553 PWs)   bands (ev):

    -1.0862   3.3334   5.3672   6.1119  11.6563  12.1598  16.6318  19.3108

          k = 0.6250-0.1250 0.8750 (   548 PWs)   bands (ev):

     0.1650   2.0140   4.3690   5.8416  12.0601  14.2611  16.0656  18.4554

          k = 0.5000 0.0000 0.7500 (   548 PWs)   bands (ev):

    -0.3078   2.4762   4.1148   6.3798  12.6572  14.8124  15.7105  17.7958

          k =-0.2500-1.0000 0.0000 (   552 PWs)   bands (ev):

     1.0695   1.0695   5.2405   5.2405  11.5329  11.5329  19.0388  19.0388

          k =-0.5000-1.0000 0.0000 (   524 PWs)   bands (ev):

     1.2699   1.2699   4.5396   4.5396  14.1198  14.1199  15.8703  15.8703

     the Fermi energy is     9.8129 ev

!    total energy              =     -22.72445699 Ry
     estimated scf accuracy    <       0.00000010 Ry
     smearing contrib. (-TS)   =       0.00001049 Ry
     internal energy E=F+TS    =     -22.72446748 Ry

     The total energy is F=E-TS. E is the sum of the following terms:
     one-electron contribution =       7.78009382 Ry
     hartree contribution      =       0.83852576 Ry
     xc contribution           =     -12.72711472 Ry
     ewald contribution        =     -18.61597234 Ry

     convergence has been achieved in   4 iterations

     Forces acting on atoms (cartesian axes, Ry/au):

     atom    1 type  1   force =     0.00000000    0.00000000    0.00000000
     atom    2 type  1   force =     0.00000000    0.00000000    0.00000000

     Total force =     0.000000     Total SCF correction =     0.000000

     BFGS Geometry Optimization

     bfgs converged in   1 scf cycles and   0 bfgs steps
     (criteria: energy <  1.0E-04 Ry, force <  1.0E-03 Ry/Bohr)

     End of BFGS Geometry Optimization

     Final energy   =     -22.7244569895 Ry
Begin final coordinates

ATOMIC_POSITIONS (crystal)
Si            0.0000000000        0.0000000000        0.0000000000
Si            0.2500000000        0.2500000000        0.2500000000
End final coordinates



     Writing output data file /home/jesus/Documentos/Nanociencia_DFT/test.save/
 
     init_run     :      0.40s CPU      0.44s WALL (       1 calls)
     electrons    :      1.78s CPU      1.93s WALL (       1 calls)
     forces       :      0.08s CPU      0.10s WALL (       1 calls)

     Called by init_run:
     wfcinit      :      0.10s CPU      0.10s WALL (       1 calls)
     potinit      :      0.03s CPU      0.03s WALL (       1 calls)
     hinit0       :      0.25s CPU      0.25s WALL (       1 calls)

     Called by electrons:
     c_bands      :      1.28s CPU      1.31s WALL (       4 calls)
     sum_band     :      0.31s CPU      0.37s WALL (       4 calls)
     v_of_rho     :      0.10s CPU      0.10s WALL (       5 calls)
     newd         :      0.11s CPU      0.21s WALL (       5 calls)
     mix_rho      :      0.00s CPU      0.00s WALL (       4 calls)

     Called by c_bands:
     init_us_2    :      0.05s CPU      0.05s WALL (     290 calls)
     cegterg      :      1.07s CPU      1.10s WALL (     116 calls)

     Called by *egterg:
     cdiaghg      :      0.06s CPU      0.07s WALL (     583 calls)
     h_psi        :      0.98s CPU      1.00s WALL (     612 calls)
     s_psi        :      0.03s CPU      0.03s WALL (     612 calls)
     g_psi        :      0.00s CPU      0.00s WALL (     467 calls)

     Called by h_psi:
     h_psi:calbec :      0.04s CPU      0.04s WALL (     612 calls)
     vloc_psi     :      0.90s CPU      0.92s WALL (     612 calls)
     add_vuspsi   :      0.03s CPU      0.03s WALL (     612 calls)

     General routines
     calbec       :      0.05s CPU      0.05s WALL (     844 calls)
     fft          :      0.04s CPU      0.04s WALL (      74 calls)
     ffts         :      0.00s CPU      0.00s WALL (       9 calls)
     fftw         :      0.94s CPU      0.96s WALL (    6922 calls)
     interpolate  :      0.00s CPU      0.00s WALL (       5 calls)
 
     Parallel routines
 
     PWSCF        :      2.90s CPU      3.13s WALL

 
   This run was terminated on:  22:33:25  15Mar2021            

=------------------------------------------------------------------------------=
   JOB DONE.
=------------------------------------------------------------------------------=
