
     Program PWSCF v.6.6 starts on 15Mar2021 at 22:34:38 

     This program is part of the open-source Quantum ESPRESSO suite
     for quantum simulation of materials; please cite
         "P. Giannozzi et al., J. Phys.:Condens. Matter 21 395502 (2009);
         "P. Giannozzi et al., J. Phys.:Condens. Matter 29 465901 (2017);
          URL http://www.quantum-espresso.org", 
     in publications or presentations arising from this work. More details at
     http://www.quantum-espresso.org/quote

     Parallel version (MPI), running on     1 processors

     MPI processes distributed on     1 nodes
     Fft bands division:     nmany     =       1
     Waiting for input...
     Reading input from standard input
Warning: card &CELL ignored
Warning: card   CELL_DYNAMICS='BFGS', ignored
Warning: card   CELL_DOFREE='ALL', ignored
Warning: card / ignored

     Current dimensions of program PWSCF are:
     Max number of different atomic species (ntypx) = 10
     Max number of k-points (npk) =  40000
     Max angular momentum in pseudopotentials (lmaxx) =  3

     Subspace diagonalization in iterative solution of the eigenvalue problem:
     a serial algorithm will be used

 
     G-vector sticks info
     --------------------
     sticks:   dense  smooth     PW     G-vecs:    dense   smooth      PW
     Sum        1159     583    187                26469     9377    1639
 


     bravais-lattice index     =            2
     lattice parameter (alat)  =      11.9053  a.u.
     unit-cell volume          =     421.8502 (a.u.)^3
     number of atoms/cell      =            2
     number of atomic types    =            1
     number of electrons       =         8.00
     number of Kohn-Sham states=            8
     kinetic-energy cutoff     =      30.0000  Ry
     charge density cutoff     =     240.0000  Ry
     convergence threshold     =      1.0E-06
     mixing beta               =       0.7000
     number of iterations used =            8  plain     mixing
     Exchange-correlation= PBE
                           (   1   4   3   4   0   0   0)
     nstep                     =            1


     celldm(1)=  11.905275  celldm(2)=   0.000000  celldm(3)=   0.000000
     celldm(4)=   0.000000  celldm(5)=   0.000000  celldm(6)=   0.000000

     crystal axes: (cart. coord. in units of alat)
               a(1) = (  -0.500000   0.000000   0.500000 )  
               a(2) = (   0.000000   0.500000   0.500000 )  
               a(3) = (  -0.500000   0.500000   0.000000 )  

     reciprocal axes: (cart. coord. in units 2 pi/alat)
               b(1) = ( -1.000000 -1.000000  1.000000 )  
               b(2) = (  1.000000  1.000000  1.000000 )  
               b(3) = ( -1.000000  1.000000 -1.000000 )  


     PseudoPot. # 1 for Si read from file:
     /home/jesus/Documentos/Nanociencia_DFT/pseudopotenciales/Si.pbe-n-rrkjus_psl.1.0.0.UPF
     MD5 check sum: fa25574f73a70a4139f2adfbefec430c
     Pseudo is Ultrasoft + core correction, Zval =  4.0
     Generated using "atomic" code by A. Dal Corso v.6.3
     Using radial grid of 1141 points,  6 beta functions with: 
                l(1) =   0
                l(2) =   0
                l(3) =   1
                l(4) =   1
                l(5) =   2
                l(6) =   2
     Q(r) pseudized with 0 coefficients 


     atomic species   valence    mass     pseudopotential
        Si             4.00    28.08550     Si( 1.00)

     48 Sym. Ops., with inversion, found (24 have fractional translation)



   Cartesian axes

     site n.     atom                  positions (alat units)
         1           Si  tau(   1) = (   0.0000000   0.0000000   0.0000000  )
         2           Si  tau(   2) = (  -0.2500000   0.2500000   0.2500000  )

     number of k points=    29  Methfessel-Paxton smearing, width (Ry)=  0.0100
                       cart. coord. in units 2pi/alat
        k(    1) = (   0.0000000   0.0000000   0.0000000), wk =   0.0039062
        k(    2) = (  -0.1250000   0.1250000  -0.1250000), wk =   0.0312500
        k(    3) = (  -0.2500000   0.2500000  -0.2500000), wk =   0.0312500
        k(    4) = (  -0.3750000   0.3750000  -0.3750000), wk =   0.0312500
        k(    5) = (   0.5000000  -0.5000000   0.5000000), wk =   0.0156250
        k(    6) = (   0.0000000   0.2500000   0.0000000), wk =   0.0234375
        k(    7) = (  -0.1250000   0.3750000  -0.1250000), wk =   0.0937500
        k(    8) = (  -0.2500000   0.5000000  -0.2500000), wk =   0.0937500
        k(    9) = (   0.6250000  -0.3750000   0.6250000), wk =   0.0937500
        k(   10) = (   0.5000000  -0.2500000   0.5000000), wk =   0.0937500
        k(   11) = (   0.3750000  -0.1250000   0.3750000), wk =   0.0937500
        k(   12) = (   0.2500000   0.0000000   0.2500000), wk =   0.0468750
        k(   13) = (   0.0000000   0.5000000   0.0000000), wk =   0.0234375
        k(   14) = (  -0.1250000   0.6250000  -0.1250000), wk =   0.0937500
        k(   15) = (   0.7500000  -0.2500000   0.7500000), wk =   0.0937500
        k(   16) = (   0.6250000  -0.1250000   0.6250000), wk =   0.0937500
        k(   17) = (   0.5000000   0.0000000   0.5000000), wk =   0.0468750
        k(   18) = (   0.0000000   0.7500000   0.0000000), wk =   0.0234375
        k(   19) = (   0.8750000  -0.1250000   0.8750000), wk =   0.0937500
        k(   20) = (   0.7500000   0.0000000   0.7500000), wk =   0.0468750
        k(   21) = (   0.0000000  -1.0000000   0.0000000), wk =   0.0117188
        k(   22) = (  -0.2500000   0.5000000   0.0000000), wk =   0.0937500
        k(   23) = (   0.6250000  -0.3750000   0.8750000), wk =   0.1875000
        k(   24) = (   0.5000000  -0.2500000   0.7500000), wk =   0.0937500
        k(   25) = (   0.7500000  -0.2500000   1.0000000), wk =   0.0937500
        k(   26) = (   0.6250000  -0.1250000   0.8750000), wk =   0.1875000
        k(   27) = (   0.5000000   0.0000000   0.7500000), wk =   0.0937500
        k(   28) = (  -0.2500000  -1.0000000   0.0000000), wk =   0.0468750
        k(   29) = (  -0.5000000  -1.0000000   0.0000000), wk =   0.0234375

     Dense  grid:    26469 G-vectors     FFT dimensions: (  48,  48,  48)

     Smooth grid:     9377 G-vectors     FFT dimensions: (  32,  32,  32)

     Estimated max dynamical RAM per process >     101.59 MB

     Initial potential from superposition of free atoms

     starting charge    7.99888, renormalised to    8.00000
     Starting wfcs are    8 randomized atomic wfcs

     total cpu time spent up to now is        1.4 secs

     Self-consistent Calculation

     iteration #  1     ecut=    30.00 Ry     beta= 0.70
     Davidson diagonalization with overlap
     ethr =  1.00E-02,  avg # of iterations =  2.8

     Threshold (ethr) on eigenvalues was too large:
     Diagonalizing with lowered threshold

     Davidson diagonalization with overlap
     ethr =  3.02E-04,  avg # of iterations =  2.5

     total cpu time spent up to now is        3.1 secs

     total energy              =     -22.73458627 Ry
     estimated scf accuracy    <       0.02592679 Ry

     iteration #  2     ecut=    30.00 Ry     beta= 0.70
     Davidson diagonalization with overlap
     ethr =  3.24E-04,  avg # of iterations =  1.0

     total cpu time spent up to now is        3.9 secs

     total energy              =     -22.73479195 Ry
     estimated scf accuracy    <       0.00207543 Ry

     iteration #  3     ecut=    30.00 Ry     beta= 0.70
     Davidson diagonalization with overlap
     ethr =  2.59E-05,  avg # of iterations =  3.6

     total cpu time spent up to now is        4.9 secs

     total energy              =     -22.73486022 Ry
     estimated scf accuracy    <       0.00000445 Ry

     iteration #  4     ecut=    30.00 Ry     beta= 0.70
     Davidson diagonalization with overlap
     ethr =  5.56E-08,  avg # of iterations =  5.0

     total cpu time spent up to now is        6.1 secs

     End of self-consistent calculation

          k = 0.0000 0.0000 0.0000 (  1211 PWs)   bands (ev):

    -7.0594   1.4829   2.3967   2.3967   2.3967   4.6670   4.6670   4.6670

          k =-0.1250 0.1250-0.1250 (  1185 PWs)   bands (ev):

    -6.9245   0.2968   2.2167   2.2167   2.9554   4.9367   4.9367   5.1149

          k =-0.2500 0.2500-0.2500 (  1179 PWs)   bands (ev):

    -6.5380  -1.2447   1.8946   1.8946   2.8800   5.3880   5.3880   6.5067

          k =-0.3750 0.3750-0.3750 (  1167 PWs)   bands (ev):

    -5.9907  -2.5400   1.6546   1.6546   2.6422   5.5900   5.5901   8.1509

          k = 0.5000-0.5000 0.5000 (  1170 PWs)   bands (ev):

    -5.6500  -3.1372   1.5697   1.5697   2.5459   5.6117   5.6117   8.9731

          k = 0.0000 0.2500 0.0000 (  1187 PWs)   bands (ev):

    -6.8786   0.1606   1.9213   1.9213   3.6455   4.3142   5.3660   5.3660

          k =-0.1250 0.3750-0.1250 (  1179 PWs)   bands (ev):

    -6.5715  -0.9876   1.5101   1.5795   3.8720   4.5427   5.9299   6.2065

          k =-0.2500 0.5000-0.2500 (  1174 PWs)   bands (ev):

    -6.0577  -2.2560   1.0546   1.3766   3.6430   5.1974   6.1644   7.0475

          k = 0.6250-0.3750 0.6250 (  1172 PWs)   bands (ev):

    -5.5719  -3.1166   0.7510   1.3659   3.4783   5.5112   6.0704   8.2044

          k = 0.5000-0.2500 0.5000 (  1173 PWs)   bands (ev):

    -5.7019  -2.9076   0.6781   1.5424   3.4706   5.6819   5.8688   8.1357

          k = 0.3750-0.1250 0.3750 (  1171 PWs)   bands (ev):

    -6.2490  -1.8498   0.8805   1.8563   3.5805   5.5281   5.6483   6.8482

          k = 0.2500 0.0000 0.2500 (  1169 PWs)   bands (ev):

    -6.7038  -0.6051   1.4276   2.1724   3.5018   5.0604   5.1088   6.0023

          k = 0.0000 0.5000 0.0000 (  1174 PWs)   bands (ev):

    -6.3444  -1.4555   1.2117   1.2117   3.7535   4.5196   6.7258   6.7259

          k =-0.1250 0.6250-0.1250 (  1173 PWs)   bands (ev):

    -5.8857  -2.3700   0.7074   0.9887   3.8780   4.6813   6.9379   7.2222

          k = 0.7500-0.2500 0.7500 (  1172 PWs)   bands (ev):

    -5.3298  -3.2281   0.1461   0.9743   3.9060   5.6802   6.9209   7.1821

          k = 0.6250-0.1250 0.6250 (  1165 PWs)   bands (ev):

    -5.2331  -3.3559  -0.1172   1.1686   3.9634   6.3220   6.8283   7.6270

          k = 0.5000 0.0000 0.5000 (  1171 PWs)   bands (ev):

    -5.7495  -2.6370   0.0859   1.5160   4.0271   6.2033   6.3290   6.7527

          k = 0.0000 0.7500 0.0000 (  1182 PWs)   bands (ev):

    -5.4829  -2.9751   0.7231   0.7231   3.4623   4.1167   8.2025   8.2025

          k = 0.8750-0.1250 0.8750 (  1166 PWs)   bands (ev):

    -4.9133  -3.6984   0.2748   0.6656   3.6738   4.3644   8.2267   8.4582

          k = 0.7500 0.0000 0.7500 (  1154 PWs)   bands (ev):

    -4.7079  -3.9091  -0.1978   0.8286   3.8110   5.7861   7.8176   7.9022

          k = 0.0000-1.0000 0.0000 (  1162 PWs)   bands (ev):

    -4.3392  -4.3392   0.5535   0.5535   3.5930   3.5930   9.1027   9.1028

          k =-0.2500 0.5000 0.0000 (  1169 PWs)   bands (ev):

    -6.1906  -1.8487   0.7268   1.4531   4.3624   4.5950   6.4290   6.5774

          k = 0.6250-0.3750 0.8750 (  1164 PWs)   bands (ev):

    -5.6412  -2.8192   0.2565   1.1731   4.3002   5.3269   6.5487   7.1367

          k = 0.5000-0.2500 0.7500 (  1164 PWs)   bands (ev):

    -5.2816  -3.3437   0.1138   1.0470   4.2406   5.5133   6.8421   7.7823

          k = 0.7500-0.2500 1.0000 (  1183 PWs)   bands (ev):

    -5.3742  -3.1141   0.3101   0.6932   4.3009   4.6571   6.8622   8.1102

          k = 0.6250-0.1250 0.8750 (  1173 PWs)   bands (ev):

    -4.8580  -3.7340  -0.0833   0.5777   4.5096   5.7605   6.6699   7.7665

          k = 0.5000 0.0000 0.7500 (  1166 PWs)   bands (ev):

    -5.0848  -3.4743  -0.1770   0.7982   4.6308   6.0173   6.5976   7.5373

          k =-0.2500-1.0000 0.0000 (  1172 PWs)   bands (ev):

    -4.3187  -4.3187   0.2905   0.2905   4.3509   4.3509   8.1172   8.1172

          k =-0.5000-1.0000 0.0000 (  1176 PWs)   bands (ev):

    -4.2976  -4.2976   0.0768   0.0768   5.6922   5.6922   6.5326   6.5326

     the Fermi energy is     2.3920 ev

!    total energy              =     -22.73486812 Ry
     estimated scf accuracy    <       0.00000013 Ry
     smearing contrib. (-TS)   =       0.00006122 Ry
     internal energy E=F+TS    =     -22.73492933 Ry

     The total energy is F=E-TS. E is the sum of the following terms:
     one-electron contribution =       2.06009785 Ry
     hartree contribution      =       1.53974004 Ry
     xc contribution           =     -11.85567762 Ry
     ewald contribution        =     -14.47908960 Ry

     convergence has been achieved in   4 iterations

     Forces acting on atoms (cartesian axes, Ry/au):

     atom    1 type  1   force =    -0.00000000   -0.00000000   -0.00000000
     atom    2 type  1   force =     0.00000000    0.00000000    0.00000000

     Total force =     0.000000     Total SCF correction =     0.000000

     BFGS Geometry Optimization

     bfgs converged in   1 scf cycles and   0 bfgs steps
     (criteria: energy <  1.0E-04 Ry, force <  1.0E-03 Ry/Bohr)

     End of BFGS Geometry Optimization

     Final energy   =     -22.7348681157 Ry
Begin final coordinates

ATOMIC_POSITIONS (crystal)
Si            0.0000000000        0.0000000000        0.0000000000
Si            0.2500000000        0.2500000000        0.2500000000
End final coordinates



     Writing output data file /home/jesus/Documentos/Nanociencia_DFT/test.save/
 
     init_run     :      0.57s CPU      0.62s WALL (       1 calls)
     electrons    :      4.29s CPU      4.66s WALL (       1 calls)
     forces       :      0.18s CPU      0.22s WALL (       1 calls)

     Called by init_run:
     wfcinit      :      0.17s CPU      0.17s WALL (       1 calls)
     potinit      :      0.06s CPU      0.07s WALL (       1 calls)
     hinit0       :      0.23s CPU      0.24s WALL (       1 calls)

     Called by electrons:
     c_bands      :      2.90s CPU      2.91s WALL (       5 calls)
     sum_band     :      0.84s CPU      1.04s WALL (       5 calls)
     v_of_rho     :      0.29s CPU      0.32s WALL (       5 calls)
     newd         :      0.35s CPU      0.50s WALL (       5 calls)
     mix_rho      :      0.02s CPU      0.02s WALL (       5 calls)

     Called by c_bands:
     init_us_2    :      0.14s CPU      0.14s WALL (     348 calls)
     cegterg      :      2.32s CPU      2.33s WALL (     145 calls)

     Called by *egterg:
     cdiaghg      :      0.07s CPU      0.07s WALL (     546 calls)
     h_psi        :      2.10s CPU      2.12s WALL (     604 calls)
     s_psi        :      0.07s CPU      0.07s WALL (     604 calls)
     g_psi        :      0.01s CPU      0.01s WALL (     430 calls)

     Called by h_psi:
     h_psi:calbec :      0.10s CPU      0.10s WALL (     604 calls)
     vloc_psi     :      1.91s CPU      1.93s WALL (     604 calls)
     add_vuspsi   :      0.08s CPU      0.08s WALL (     604 calls)

     General routines
     calbec       :      0.14s CPU      0.14s WALL (     865 calls)
     fft          :      0.11s CPU      0.11s WALL (      75 calls)
     ffts         :      0.00s CPU      0.00s WALL (      10 calls)
     fftw         :      1.87s CPU      1.89s WALL (    8000 calls)
     interpolate  :      0.01s CPU      0.01s WALL (       5 calls)
 
     Parallel routines
 
     PWSCF        :      5.86s CPU      6.32s WALL

 
   This run was terminated on:  22:34:44  15Mar2021            

=------------------------------------------------------------------------------=
   JOB DONE.
=------------------------------------------------------------------------------=
