
     Program PWSCF v.6.6 starts on  2Apr2021 at 16:52:11 

     This program is part of the open-source Quantum ESPRESSO suite
     for quantum simulation of materials; please cite
         "P. Giannozzi et al., J. Phys.:Condens. Matter 21 395502 (2009);
         "P. Giannozzi et al., J. Phys.:Condens. Matter 29 465901 (2017);
          URL http://www.quantum-espresso.org", 
     in publications or presentations arising from this work. More details at
     http://www.quantum-espresso.org/quote

     Parallel version (MPI), running on     1 processors

     MPI processes distributed on     1 nodes
     Fft bands division:     nmany     =       1
     Waiting for input...
     Reading input from standard input
Warning: card &CELL ignored
Warning: card   CELL_DYNAMICS='BFGS', ignored
Warning: card   CELL_DOFREE='ALL', ignored
Warning: card / ignored

     Current dimensions of program PWSCF are:
     Max number of different atomic species (ntypx) = 10
     Max number of k-points (npk) =  40000
     Max angular momentum in pseudopotentials (lmaxx) =  3

     Subspace diagonalization in iterative solution of the eigenvalue problem:
     a serial algorithm will be used

 
     G-vector sticks info
     --------------------
     sticks:   dense  smooth     PW     G-vecs:    dense   smooth      PW
     Sum         859     433    151                16889     5985    1139
 


     bravais-lattice index     =            2
     lattice parameter (alat)  =      10.2612  a.u.
     unit-cell volume          =     270.1072 (a.u.)^3
     number of atoms/cell      =            2
     number of atomic types    =            1
     number of electrons       =         8.00
     number of Kohn-Sham states=            8
     kinetic-energy cutoff     =      30.0000  Ry
     charge density cutoff     =     240.0000  Ry
     convergence threshold     =      1.0E-06
     mixing beta               =       0.7000
     number of iterations used =            8  plain     mixing
     Exchange-correlation= PBE
                           (   1   4   3   4   0   0   0)
     nstep                     =            1


     celldm(1)=  10.261213  celldm(2)=   0.000000  celldm(3)=   0.000000
     celldm(4)=   0.000000  celldm(5)=   0.000000  celldm(6)=   0.000000

     crystal axes: (cart. coord. in units of alat)
               a(1) = (  -0.500000   0.000000   0.500000 )  
               a(2) = (   0.000000   0.500000   0.500000 )  
               a(3) = (  -0.500000   0.500000   0.000000 )  

     reciprocal axes: (cart. coord. in units 2 pi/alat)
               b(1) = ( -1.000000 -1.000000  1.000000 )  
               b(2) = (  1.000000  1.000000  1.000000 )  
               b(3) = ( -1.000000  1.000000 -1.000000 )  


     PseudoPot. # 1 for Si read from file:
     /home/jesus/Documentos/Nanociencia_DFT/pseudopotenciales/Si.pbe-n-rrkjus_psl.1.0.0.UPF
     MD5 check sum: fa25574f73a70a4139f2adfbefec430c
     Pseudo is Ultrasoft + core correction, Zval =  4.0
     Generated using "atomic" code by A. Dal Corso v.6.3
     Using radial grid of 1141 points,  6 beta functions with: 
                l(1) =   0
                l(2) =   0
                l(3) =   1
                l(4) =   1
                l(5) =   2
                l(6) =   2
     Q(r) pseudized with 0 coefficients 


     atomic species   valence    mass     pseudopotential
        Si             4.00    28.08550     Si( 1.00)

     48 Sym. Ops., with inversion, found (24 have fractional translation)



   Cartesian axes

     site n.     atom                  positions (alat units)
         1           Si  tau(   1) = (   0.0000000   0.0000000   0.0000000  )
         2           Si  tau(   2) = (  -0.2500000   0.2500000   0.2500000  )

     number of k points=    29  Methfessel-Paxton smearing, width (Ry)=  0.0100
                       cart. coord. in units 2pi/alat
        k(    1) = (   0.0000000   0.0000000   0.0000000), wk =   0.0039062
        k(    2) = (  -0.1250000   0.1250000  -0.1250000), wk =   0.0312500
        k(    3) = (  -0.2500000   0.2500000  -0.2500000), wk =   0.0312500
        k(    4) = (  -0.3750000   0.3750000  -0.3750000), wk =   0.0312500
        k(    5) = (   0.5000000  -0.5000000   0.5000000), wk =   0.0156250
        k(    6) = (   0.0000000   0.2500000   0.0000000), wk =   0.0234375
        k(    7) = (  -0.1250000   0.3750000  -0.1250000), wk =   0.0937500
        k(    8) = (  -0.2500000   0.5000000  -0.2500000), wk =   0.0937500
        k(    9) = (   0.6250000  -0.3750000   0.6250000), wk =   0.0937500
        k(   10) = (   0.5000000  -0.2500000   0.5000000), wk =   0.0937500
        k(   11) = (   0.3750000  -0.1250000   0.3750000), wk =   0.0937500
        k(   12) = (   0.2500000   0.0000000   0.2500000), wk =   0.0468750
        k(   13) = (   0.0000000   0.5000000   0.0000000), wk =   0.0234375
        k(   14) = (  -0.1250000   0.6250000  -0.1250000), wk =   0.0937500
        k(   15) = (   0.7500000  -0.2500000   0.7500000), wk =   0.0937500
        k(   16) = (   0.6250000  -0.1250000   0.6250000), wk =   0.0937500
        k(   17) = (   0.5000000   0.0000000   0.5000000), wk =   0.0468750
        k(   18) = (   0.0000000   0.7500000   0.0000000), wk =   0.0234375
        k(   19) = (   0.8750000  -0.1250000   0.8750000), wk =   0.0937500
        k(   20) = (   0.7500000   0.0000000   0.7500000), wk =   0.0468750
        k(   21) = (   0.0000000  -1.0000000   0.0000000), wk =   0.0117188
        k(   22) = (  -0.2500000   0.5000000   0.0000000), wk =   0.0937500
        k(   23) = (   0.6250000  -0.3750000   0.8750000), wk =   0.1875000
        k(   24) = (   0.5000000  -0.2500000   0.7500000), wk =   0.0937500
        k(   25) = (   0.7500000  -0.2500000   1.0000000), wk =   0.0937500
        k(   26) = (   0.6250000  -0.1250000   0.8750000), wk =   0.1875000
        k(   27) = (   0.5000000   0.0000000   0.7500000), wk =   0.0937500
        k(   28) = (  -0.2500000  -1.0000000   0.0000000), wk =   0.0468750
        k(   29) = (  -0.5000000  -1.0000000   0.0000000), wk =   0.0234375

     Dense  grid:    16889 G-vectors     FFT dimensions: (  36,  36,  36)

     Smooth grid:     5985 G-vectors     FFT dimensions: (  32,  32,  32)

     Estimated max dynamical RAM per process >      63.64 MB

     Initial potential from superposition of free atoms

     starting charge    7.99888, renormalised to    8.00000
     Starting wfcs are    8 randomized atomic wfcs

     total cpu time spent up to now is        1.3 secs

     Self-consistent Calculation

     iteration #  1     ecut=    30.00 Ry     beta= 0.70
     Davidson diagonalization with overlap
     ethr =  1.00E-02,  avg # of iterations =  3.8

     Threshold (ethr) on eigenvalues was too large:
     Diagonalizing with lowered threshold

     Davidson diagonalization with overlap
     ethr =  6.48E-04,  avg # of iterations =  1.9

     total cpu time spent up to now is        2.6 secs

     total energy              =     -22.83679833 Ry
     estimated scf accuracy    <       0.05579475 Ry

     iteration #  2     ecut=    30.00 Ry     beta= 0.70
     Davidson diagonalization with overlap
     ethr =  6.97E-04,  avg # of iterations =  1.0

     total cpu time spent up to now is        3.2 secs

     total energy              =     -22.83914555 Ry
     estimated scf accuracy    <       0.00220417 Ry

     iteration #  3     ecut=    30.00 Ry     beta= 0.70
     Davidson diagonalization with overlap
     ethr =  2.76E-05,  avg # of iterations =  4.5

     total cpu time spent up to now is        3.9 secs

     total energy              =     -22.83928868 Ry
     estimated scf accuracy    <       0.00004798 Ry

     iteration #  4     ecut=    30.00 Ry     beta= 0.70
     Davidson diagonalization with overlap
     ethr =  6.00E-07,  avg # of iterations =  4.5

     total cpu time spent up to now is        4.6 secs

     End of self-consistent calculation

          k = 0.0000 0.0000 0.0000 (   749 PWs)   bands (ev):

    -5.7567   6.2085   6.2085   6.2085   8.7710   8.7710   8.7710   9.5724

          k =-0.1250 0.1250-0.1250 (   743 PWs)   bands (ev):

    -5.5525   4.6084   5.9191   5.9191   8.7102   9.1960   9.1961  10.9193

          k =-0.2500 0.2500-0.2500 (   754 PWs)   bands (ev):

    -4.9569   2.2788   5.4476   5.4476   8.2373   9.7151   9.7151  13.1276

          k =-0.3750 0.3750-0.3750 (   763 PWs)   bands (ev):

    -4.0630   0.2578   5.1201   5.1201   7.8739   9.6607   9.6607  14.0951

          k = 0.5000-0.5000 0.5000 (   754 PWs)   bands (ev):

    -3.4247  -0.7652   5.0082   5.0082   7.7461   9.5497   9.5497  13.9413

          k = 0.0000 0.2500 0.0000 (   745 PWs)   bands (ev):

    -5.4838   4.8741   5.4006   5.4006   8.2199   9.9128   9.9129  10.6055

          k =-0.1250 0.3750-0.1250 (   757 PWs)   bands (ev):

    -5.0150   2.9823   4.8883   4.9647   8.3568   9.9167  10.6780  10.9634

          k =-0.2500 0.5000-0.2500 (   746 PWs)   bands (ev):

    -4.2000   0.9206   4.3728   4.6199   8.4565   9.8512  10.6751  11.6804

          k = 0.6250-0.3750 0.6250 (   753 PWs)   bands (ev):

    -3.3382  -0.5436   3.9267   4.6444   8.4031   9.7251  10.3112  13.5823

          k = 0.5000-0.2500 0.5000 (   750 PWs)   bands (ev):

    -3.5828  -0.1727   3.7448   4.9413   8.5695   9.8341  10.0786  14.1274

          k = 0.3750-0.1250 0.3750 (   748 PWs)   bands (ev):

    -4.5063   1.5802   3.8956   5.4334   8.9279   9.8863  10.0675  12.5098

          k = 0.2500 0.0000 0.2500 (   753 PWs)   bands (ev):

    -5.2163   3.5228   4.5781   5.9152   9.2506   9.3323   9.5700  11.7593

          k = 0.0000 0.5000 0.0000 (   729 PWs)   bands (ev):

    -4.6746   2.6898   4.3165   4.3165   7.3387   9.3439  11.9679  11.9679

          k =-0.1250 0.6250-0.1250 (   751 PWs)   bands (ev):

    -3.9645   1.2653   3.5354   3.9980   7.5597   9.1052  12.2084  12.4804

          k = 0.7500-0.2500 0.7500 (   748 PWs)   bands (ev):

    -3.0382  -0.1774   2.6715   4.0012   7.7292  10.6600  11.9554  12.1312

          k = 0.6250-0.1250 0.6250 (   744 PWs)   bands (ev):

    -2.8338  -0.4360   2.2127   4.3199   8.0538  11.6773  11.6911  13.1713

          k = 0.5000 0.0000 0.5000 (   754 PWs)   bands (ev):

    -3.7126   0.7254   2.4528   4.8790   8.6593  10.9988  11.3458  12.3564

          k = 0.0000 0.7500 0.0000 (   753 PWs)   bands (ev):

    -3.3619   0.4607   3.5993   3.5993   6.8237   7.7496  14.2515  14.2515

          k = 0.8750-0.1250 0.8750 (   747 PWs)   bands (ev):

    -2.4644  -0.6247   2.7698   3.5231   7.1036   8.1772  14.4774  14.5648

          k = 0.7500 0.0000 0.7500 (   740 PWs)   bands (ev):

    -2.0253  -1.0215   1.9033   3.7809   7.4132  10.3400  13.6794  14.4425

          k = 0.0000-1.0000 0.0000 (   740 PWs)   bands (ev):

    -1.6116  -1.6116   3.3535   3.3535   6.9189   6.9189  16.3143  16.3144

          k =-0.2500 0.5000 0.0000 (   755 PWs)   bands (ev):

    -4.4272   1.9167   3.4930   4.7792   8.6568  10.1114  10.4065  11.7128

          k = 0.6250-0.3750 0.8750 (   747 PWs)   bands (ev):

    -3.5386   0.3640   2.8848   4.2772   9.0873   9.7646  11.2305  12.1483

          k = 0.5000-0.2500 0.7500 (   750 PWs)   bands (ev):

    -2.8860  -0.5816   2.7560   4.0473   9.2768   9.3430  12.1228  13.3327

          k = 0.7500-0.2500 1.0000 (   755 PWs)   bands (ev):

    -3.1632   0.2416   2.8434   3.4467   8.1565   8.8570  11.9652  14.2010

          k = 0.6250-0.1250 0.8750 (   748 PWs)   bands (ev):

    -2.2881  -0.7267   2.1449   3.2458   8.5985  10.4929  11.4875  13.6508

          k = 0.5000 0.0000 0.7500 (   747 PWs)   bands (ev):

    -2.6388  -0.3634   1.9779   3.6221   9.0785  10.7556  11.4262  13.2420

          k =-0.2500-1.0000 0.0000 (   742 PWs)   bands (ev):

    -1.5336  -1.5336   2.7889   2.7889   8.1805   8.1805  14.0579  14.0579

          k =-0.5000-1.0000 0.0000 (   744 PWs)   bands (ev):

    -1.4476  -1.4476   2.3527   2.3527  10.4818  10.4819  11.2129  11.2129

     the Fermi energy is     6.7252 ev

!    total energy              =     -22.83929741 Ry
     estimated scf accuracy    <       0.00000014 Ry
     smearing contrib. (-TS)   =       0.00001508 Ry
     internal energy E=F+TS    =     -22.83931249 Ry

     The total energy is F=E-TS. E is the sum of the following terms:
     one-electron contribution =       5.16829258 Ry
     hartree contribution      =       1.10091347 Ry
     xc contribution           =     -12.30957480 Ry
     ewald contribution        =     -16.79894374 Ry

     convergence has been achieved in   4 iterations

     Forces acting on atoms (cartesian axes, Ry/au):

     atom    1 type  1   force =    -0.00000000    0.00000000   -0.00000000
     atom    2 type  1   force =     0.00000000   -0.00000000    0.00000000

     Total force =     0.000000     Total SCF correction =     0.000000

     BFGS Geometry Optimization

     bfgs converged in   1 scf cycles and   0 bfgs steps
     (criteria: energy <  1.0E-04 Ry, force <  1.0E-03 Ry/Bohr)

     End of BFGS Geometry Optimization

     Final energy   =     -22.8392974052 Ry
Begin final coordinates

ATOMIC_POSITIONS (crystal)
Si            0.0000000000        0.0000000000        0.0000000000
Si            0.2500000000        0.2500000000        0.2500000000
End final coordinates



     Writing output data file /home/jesus/Documentos/Nanociencia_DFT/test.save/
 
     init_run     :      0.56s CPU      0.62s WALL (       1 calls)
     electrons    :      3.03s CPU      3.30s WALL (       1 calls)
     forces       :      0.10s CPU      0.13s WALL (       1 calls)

     Called by init_run:
     wfcinit      :      0.19s CPU      0.19s WALL (       1 calls)
     potinit      :      0.03s CPU      0.04s WALL (       1 calls)
     hinit0       :      0.27s CPU      0.29s WALL (       1 calls)

     Called by electrons:
     c_bands      :      2.23s CPU      2.30s WALL (       5 calls)
     sum_band     :      0.57s CPU      0.68s WALL (       5 calls)
     v_of_rho     :      0.10s CPU      0.11s WALL (       5 calls)
     newd         :      0.19s CPU      0.30s WALL (       5 calls)
     mix_rho      :      0.01s CPU      0.01s WALL (       5 calls)

     Called by c_bands:
     init_us_2    :      0.08s CPU      0.09s WALL (     348 calls)
     cegterg      :      1.89s CPU      1.94s WALL (     145 calls)

     Called by *egterg:
     cdiaghg      :      0.07s CPU      0.07s WALL (     573 calls)
     h_psi        :      1.82s CPU      1.88s WALL (     631 calls)
     s_psi        :      0.04s CPU      0.04s WALL (     631 calls)
     g_psi        :      0.01s CPU      0.01s WALL (     457 calls)

     Called by h_psi:
     h_psi:calbec :      0.06s CPU      0.06s WALL (     631 calls)
     vloc_psi     :      1.70s CPU      1.76s WALL (     631 calls)
     add_vuspsi   :      0.05s CPU      0.05s WALL (     631 calls)

     General routines
     calbec       :      0.08s CPU      0.08s WALL (     892 calls)
     fft          :      0.04s CPU      0.06s WALL (      75 calls)
     ffts         :      0.00s CPU      0.00s WALL (      10 calls)
     fftw         :      1.69s CPU      1.75s WALL (    7910 calls)
     interpolate  :      0.01s CPU      0.01s WALL (       5 calls)
 
     Parallel routines
 
     PWSCF        :      4.36s CPU      4.76s WALL

 
   This run was terminated on:  16:52:16   2Apr2021            

=------------------------------------------------------------------------------=
   JOB DONE.
=------------------------------------------------------------------------------=
