
     Program PWSCF v.6.6 starts on  2Apr2021 at 16:52: 6 

     This program is part of the open-source Quantum ESPRESSO suite
     for quantum simulation of materials; please cite
         "P. Giannozzi et al., J. Phys.:Condens. Matter 21 395502 (2009);
         "P. Giannozzi et al., J. Phys.:Condens. Matter 29 465901 (2017);
          URL http://www.quantum-espresso.org", 
     in publications or presentations arising from this work. More details at
     http://www.quantum-espresso.org/quote

     Parallel version (MPI), running on     1 processors

     MPI processes distributed on     1 nodes
     Fft bands division:     nmany     =       1
     Waiting for input...
     Reading input from standard input
Warning: card &CELL ignored
Warning: card   CELL_DYNAMICS='BFGS', ignored
Warning: card   CELL_DOFREE='ALL', ignored
Warning: card / ignored

     Current dimensions of program PWSCF are:
     Max number of different atomic species (ntypx) = 10
     Max number of k-points (npk) =  40000
     Max angular momentum in pseudopotentials (lmaxx) =  3

     Subspace diagonalization in iterative solution of the eigenvalue problem:
     a serial algorithm will be used

 
     G-vector sticks info
     --------------------
     sticks:   dense  smooth     PW     G-vecs:    dense   smooth      PW
     Sum         859     433    151                16865     5961    1139
 


     bravais-lattice index     =            2
     lattice parameter (alat)  =      10.2423  a.u.
     unit-cell volume          =     268.6176 (a.u.)^3
     number of atoms/cell      =            2
     number of atomic types    =            1
     number of electrons       =         8.00
     number of Kohn-Sham states=            8
     kinetic-energy cutoff     =      30.0000  Ry
     charge density cutoff     =     240.0000  Ry
     convergence threshold     =      1.0E-06
     mixing beta               =       0.7000
     number of iterations used =            8  plain     mixing
     Exchange-correlation= PBE
                           (   1   4   3   4   0   0   0)
     nstep                     =            1


     celldm(1)=  10.242316  celldm(2)=   0.000000  celldm(3)=   0.000000
     celldm(4)=   0.000000  celldm(5)=   0.000000  celldm(6)=   0.000000

     crystal axes: (cart. coord. in units of alat)
               a(1) = (  -0.500000   0.000000   0.500000 )  
               a(2) = (   0.000000   0.500000   0.500000 )  
               a(3) = (  -0.500000   0.500000   0.000000 )  

     reciprocal axes: (cart. coord. in units 2 pi/alat)
               b(1) = ( -1.000000 -1.000000  1.000000 )  
               b(2) = (  1.000000  1.000000  1.000000 )  
               b(3) = ( -1.000000  1.000000 -1.000000 )  


     PseudoPot. # 1 for Si read from file:
     /home/jesus/Documentos/Nanociencia_DFT/pseudopotenciales/Si.pbe-n-rrkjus_psl.1.0.0.UPF
     MD5 check sum: fa25574f73a70a4139f2adfbefec430c
     Pseudo is Ultrasoft + core correction, Zval =  4.0
     Generated using "atomic" code by A. Dal Corso v.6.3
     Using radial grid of 1141 points,  6 beta functions with: 
                l(1) =   0
                l(2) =   0
                l(3) =   1
                l(4) =   1
                l(5) =   2
                l(6) =   2
     Q(r) pseudized with 0 coefficients 


     atomic species   valence    mass     pseudopotential
        Si             4.00    28.08550     Si( 1.00)

     48 Sym. Ops., with inversion, found (24 have fractional translation)



   Cartesian axes

     site n.     atom                  positions (alat units)
         1           Si  tau(   1) = (   0.0000000   0.0000000   0.0000000  )
         2           Si  tau(   2) = (  -0.2500000   0.2500000   0.2500000  )

     number of k points=    29  Methfessel-Paxton smearing, width (Ry)=  0.0100
                       cart. coord. in units 2pi/alat
        k(    1) = (   0.0000000   0.0000000   0.0000000), wk =   0.0039062
        k(    2) = (  -0.1250000   0.1250000  -0.1250000), wk =   0.0312500
        k(    3) = (  -0.2500000   0.2500000  -0.2500000), wk =   0.0312500
        k(    4) = (  -0.3750000   0.3750000  -0.3750000), wk =   0.0312500
        k(    5) = (   0.5000000  -0.5000000   0.5000000), wk =   0.0156250
        k(    6) = (   0.0000000   0.2500000   0.0000000), wk =   0.0234375
        k(    7) = (  -0.1250000   0.3750000  -0.1250000), wk =   0.0937500
        k(    8) = (  -0.2500000   0.5000000  -0.2500000), wk =   0.0937500
        k(    9) = (   0.6250000  -0.3750000   0.6250000), wk =   0.0937500
        k(   10) = (   0.5000000  -0.2500000   0.5000000), wk =   0.0937500
        k(   11) = (   0.3750000  -0.1250000   0.3750000), wk =   0.0937500
        k(   12) = (   0.2500000   0.0000000   0.2500000), wk =   0.0468750
        k(   13) = (   0.0000000   0.5000000   0.0000000), wk =   0.0234375
        k(   14) = (  -0.1250000   0.6250000  -0.1250000), wk =   0.0937500
        k(   15) = (   0.7500000  -0.2500000   0.7500000), wk =   0.0937500
        k(   16) = (   0.6250000  -0.1250000   0.6250000), wk =   0.0937500
        k(   17) = (   0.5000000   0.0000000   0.5000000), wk =   0.0468750
        k(   18) = (   0.0000000   0.7500000   0.0000000), wk =   0.0234375
        k(   19) = (   0.8750000  -0.1250000   0.8750000), wk =   0.0937500
        k(   20) = (   0.7500000   0.0000000   0.7500000), wk =   0.0468750
        k(   21) = (   0.0000000  -1.0000000   0.0000000), wk =   0.0117188
        k(   22) = (  -0.2500000   0.5000000   0.0000000), wk =   0.0937500
        k(   23) = (   0.6250000  -0.3750000   0.8750000), wk =   0.1875000
        k(   24) = (   0.5000000  -0.2500000   0.7500000), wk =   0.0937500
        k(   25) = (   0.7500000  -0.2500000   1.0000000), wk =   0.0937500
        k(   26) = (   0.6250000  -0.1250000   0.8750000), wk =   0.1875000
        k(   27) = (   0.5000000   0.0000000   0.7500000), wk =   0.0937500
        k(   28) = (  -0.2500000  -1.0000000   0.0000000), wk =   0.0468750
        k(   29) = (  -0.5000000  -1.0000000   0.0000000), wk =   0.0234375

     Dense  grid:    16865 G-vectors     FFT dimensions: (  36,  36,  36)

     Smooth grid:     5961 G-vectors     FFT dimensions: (  32,  32,  32)

     Estimated max dynamical RAM per process >      63.55 MB

     Initial potential from superposition of free atoms

     starting charge    7.99888, renormalised to    8.00000
     Starting wfcs are    8 randomized atomic wfcs

     total cpu time spent up to now is        1.3 secs

     Self-consistent Calculation

     iteration #  1     ecut=    30.00 Ry     beta= 0.70
     Davidson diagonalization with overlap
     ethr =  1.00E-02,  avg # of iterations =  3.9

     Threshold (ethr) on eigenvalues was too large:
     Diagonalizing with lowered threshold

     Davidson diagonalization with overlap
     ethr =  6.53E-04,  avg # of iterations =  2.0

     total cpu time spent up to now is        2.5 secs

     total energy              =     -22.83652066 Ry
     estimated scf accuracy    <       0.05625618 Ry

     iteration #  2     ecut=    30.00 Ry     beta= 0.70
     Davidson diagonalization with overlap
     ethr =  7.03E-04,  avg # of iterations =  1.0

     total cpu time spent up to now is        3.1 secs

     total energy              =     -22.83891076 Ry
     estimated scf accuracy    <       0.00220002 Ry

     iteration #  3     ecut=    30.00 Ry     beta= 0.70
     Davidson diagonalization with overlap
     ethr =  2.75E-05,  avg # of iterations =  4.5

     total cpu time spent up to now is        3.8 secs

     total energy              =     -22.83905669 Ry
     estimated scf accuracy    <       0.00004912 Ry

     iteration #  4     ecut=    30.00 Ry     beta= 0.70
     Davidson diagonalization with overlap
     ethr =  6.14E-07,  avg # of iterations =  4.7

     total cpu time spent up to now is        4.5 secs

     End of self-consistent calculation

          k = 0.0000 0.0000 0.0000 (   725 PWs)   bands (ev):

    -5.7371   6.2663   6.2663   6.2663   8.8311   8.8311   8.8312   9.6938

          k =-0.1250 0.1250-0.1250 (   743 PWs)   bands (ev):

    -5.5320   4.6643   5.9752   5.9752   8.7836   9.2584   9.2584  11.0270

          k =-0.2500 0.2500-0.2500 (   754 PWs)   bands (ev):

    -4.9334   2.3263   5.5018   5.5018   8.3141   9.7773   9.7774  13.2312

          k =-0.3750 0.3750-0.3750 (   757 PWs)   bands (ev):

    -4.0343   0.2959   5.1733   5.1733   7.9512   9.7182   9.7182  14.1651

          k = 0.5000-0.5000 0.5000 (   754 PWs)   bands (ev):

    -3.3911  -0.7336   5.0611   5.0611   7.8234   9.6051   9.6051  14.0065

          k = 0.0000 0.2500 0.0000 (   745 PWs)   bands (ev):

    -5.4629   4.9369   5.4533   5.4533   8.2772   9.9795   9.9795  10.7111

          k =-0.1250 0.3750-0.1250 (   753 PWs)   bands (ev):

    -4.9919   3.0356   4.9386   5.0184   8.4158   9.9970  10.7468  11.0240

          k =-0.2500 0.5000-0.2500 (   746 PWs)   bands (ev):

    -4.1724   0.9638   4.4244   4.6695   8.5195   9.9228  10.7391  11.7460

          k = 0.6250-0.3750 0.6250 (   751 PWs)   bands (ev):

    -3.3046  -0.5091   3.9761   4.6946   8.4690   9.7906  10.3710  13.6578

          k = 0.5000-0.2500 0.5000 (   750 PWs)   bands (ev):

    -3.5513  -0.1357   3.7924   4.9934   8.6401   9.8967  10.1378  14.2094

          k = 0.3750-0.1250 0.3750 (   748 PWs)   bands (ev):

    -4.4805   1.6268   3.9423   5.4882   9.0029   9.9486  10.1311  12.5913

          k = 0.2500 0.0000 0.2500 (   753 PWs)   bands (ev):

    -5.1941   3.5784   4.6259   5.9723   9.3284   9.3946   9.6356  11.8496

          k = 0.0000 0.5000 0.0000 (   729 PWs)   bands (ev):

    -4.6499   2.7485   4.3639   4.3639   7.3913   9.4007  12.0438  12.0438

          k =-0.1250 0.6250-0.1250 (   751 PWs)   bands (ev):

    -3.9362   1.3169   3.5790   4.0441   7.6124   9.1607  12.2904  12.5547

          k = 0.7500-0.2500 0.7500 (   748 PWs)   bands (ev):

    -3.0042  -0.1347   2.7111   4.0476   7.7814  10.7219  12.0404  12.2003

          k = 0.6250-0.1250 0.6250 (   741 PWs)   bands (ev):

    -2.7979  -0.3956   2.2493   4.3682   8.1087  11.7518  11.7591  13.2502

          k = 0.5000 0.0000 0.5000 (   754 PWs)   bands (ev):

    -3.6825   0.7730   2.4892   4.9305   8.7204  11.0680  11.4165  12.4434

          k = 0.0000 0.7500 0.0000 (   753 PWs)   bands (ev):

    -3.3308   0.5103   3.6435   3.6435   6.8725   7.7979  14.3370  14.3371

          k = 0.8750-0.1250 0.8750 (   745 PWs)   bands (ev):

    -2.4285  -0.5799   2.8077   3.5670   7.1520   8.2305  14.5598  14.6562

          k = 0.7500 0.0000 0.7500 (   740 PWs)   bands (ev):

    -1.9852  -0.9798   1.9350   3.8262   7.4631  10.4021  13.7607  14.3106

          k = 0.0000-1.0000 0.0000 (   740 PWs)   bands (ev):

    -1.5719  -1.5719   3.3966   3.3966   6.9658   6.9658  16.4196  16.4197

          k =-0.2500 0.5000 0.0000 (   745 PWs)   bands (ev):

    -4.4010   1.9694   3.5353   4.8302   8.7162  10.1889  10.4625  11.7869

          k = 0.6250-0.3750 0.8750 (   746 PWs)   bands (ev):

    -3.5075   0.4081   2.9262   4.3245   9.1485   9.8291  11.2996  12.2218

          k = 0.5000-0.2500 0.7500 (   740 PWs)   bands (ev):

    -2.8500  -0.5443   2.7981   4.0928   9.3464   9.3971  12.1978  13.4037

          k = 0.7500-0.2500 1.0000 (   755 PWs)   bands (ev):

    -3.1307   0.2903   2.8823   3.4884   8.2123   8.9115  12.0416  14.2858

          k = 0.6250-0.1250 0.8750 (   744 PWs)   bands (ev):

    -2.2499  -0.6832   2.1790   3.2863   8.6546  10.5537  11.5627  13.7318

          k = 0.5000 0.0000 0.7500 (   740 PWs)   bands (ev):

    -2.6025  -0.3184   2.0108   3.6650   9.1374  10.8215  11.4972  13.3173

          k =-0.2500-1.0000 0.0000 (   742 PWs)   bands (ev):

    -1.4927  -1.4927   2.8269   2.8269   8.2343   8.2343  14.1410  14.1410

          k =-0.5000-1.0000 0.0000 (   744 PWs)   bands (ev):

    -1.4053  -1.4053   2.3869   2.3869  10.5392  10.5392  11.2902  11.2902

     the Fermi energy is     6.7743 ev

!    total energy              =     -22.83906471 Ry
     estimated scf accuracy    <       0.00000011 Ry
     smearing contrib. (-TS)   =       0.00001519 Ry
     internal energy E=F+TS    =     -22.83907990 Ry

     The total energy is F=E-TS. E is the sum of the following terms:
     one-electron contribution =       5.21115165 Ry
     hartree contribution      =       1.09607855 Ry
     xc contribution           =     -12.31637200 Ry
     ewald contribution        =     -16.82993810 Ry

     convergence has been achieved in   4 iterations

     Forces acting on atoms (cartesian axes, Ry/au):

     atom    1 type  1   force =     0.00000000   -0.00000000    0.00000000
     atom    2 type  1   force =    -0.00000000    0.00000000   -0.00000000

     Total force =     0.000000     Total SCF correction =     0.000000

     BFGS Geometry Optimization

     bfgs converged in   1 scf cycles and   0 bfgs steps
     (criteria: energy <  1.0E-04 Ry, force <  1.0E-03 Ry/Bohr)

     End of BFGS Geometry Optimization

     Final energy   =     -22.8390647121 Ry
Begin final coordinates

ATOMIC_POSITIONS (crystal)
Si            0.0000000000        0.0000000000        0.0000000000
Si            0.2500000000        0.2500000000        0.2500000000
End final coordinates



     Writing output data file /home/jesus/Documentos/Nanociencia_DFT/test.save/
 
     init_run     :      0.56s CPU      0.61s WALL (       1 calls)
     electrons    :      2.89s CPU      3.17s WALL (       1 calls)
     forces       :      0.11s CPU      0.13s WALL (       1 calls)

     Called by init_run:
     wfcinit      :      0.18s CPU      0.19s WALL (       1 calls)
     potinit      :      0.03s CPU      0.04s WALL (       1 calls)
     hinit0       :      0.27s CPU      0.29s WALL (       1 calls)

     Called by electrons:
     c_bands      :      2.13s CPU      2.18s WALL (       5 calls)
     sum_band     :      0.54s CPU      0.67s WALL (       5 calls)
     v_of_rho     :      0.10s CPU      0.11s WALL (       5 calls)
     newd         :      0.19s CPU      0.31s WALL (       5 calls)
     mix_rho      :      0.01s CPU      0.01s WALL (       5 calls)

     Called by c_bands:
     init_us_2    :      0.08s CPU      0.09s WALL (     348 calls)
     cegterg      :      1.79s CPU      1.83s WALL (     145 calls)

     Called by *egterg:
     cdiaghg      :      0.07s CPU      0.07s WALL (     581 calls)
     h_psi        :      1.71s CPU      1.75s WALL (     639 calls)
     s_psi        :      0.04s CPU      0.04s WALL (     639 calls)
     g_psi        :      0.01s CPU      0.01s WALL (     465 calls)

     Called by h_psi:
     h_psi:calbec :      0.06s CPU      0.06s WALL (     639 calls)
     vloc_psi     :      1.60s CPU      1.64s WALL (     639 calls)
     add_vuspsi   :      0.04s CPU      0.04s WALL (     639 calls)

     General routines
     calbec       :      0.08s CPU      0.08s WALL (     900 calls)
     fft          :      0.04s CPU      0.06s WALL (      75 calls)
     ffts         :      0.00s CPU      0.00s WALL (      10 calls)
     fftw         :      1.58s CPU      1.62s WALL (    7930 calls)
     interpolate  :      0.01s CPU      0.01s WALL (       5 calls)
 
     Parallel routines
 
     PWSCF        :      4.24s CPU      4.61s WALL

 
   This run was terminated on:  16:52:11   2Apr2021            

=------------------------------------------------------------------------------=
   JOB DONE.
=------------------------------------------------------------------------------=
