
     Program PWSCF v.6.6 starts on 15Mar2021 at 22:34:13 

     This program is part of the open-source Quantum ESPRESSO suite
     for quantum simulation of materials; please cite
         "P. Giannozzi et al., J. Phys.:Condens. Matter 21 395502 (2009);
         "P. Giannozzi et al., J. Phys.:Condens. Matter 29 465901 (2017);
          URL http://www.quantum-espresso.org", 
     in publications or presentations arising from this work. More details at
     http://www.quantum-espresso.org/quote

     Parallel version (MPI), running on     1 processors

     MPI processes distributed on     1 nodes
     Fft bands division:     nmany     =       1
     Waiting for input...
     Reading input from standard input
Warning: card &CELL ignored
Warning: card   CELL_DYNAMICS='BFGS', ignored
Warning: card   CELL_DOFREE='ALL', ignored
Warning: card / ignored

     Current dimensions of program PWSCF are:
     Max number of different atomic species (ntypx) = 10
     Max number of k-points (npk) =  40000
     Max angular momentum in pseudopotentials (lmaxx) =  3

     Subspace diagonalization in iterative solution of the eigenvalue problem:
     a serial algorithm will be used

 
     G-vector sticks info
     --------------------
     sticks:   dense  smooth     PW     G-vecs:    dense   smooth      PW
     Sum        1039     511    163                21883     7727    1411
 


     bravais-lattice index     =            2
     lattice parameter (alat)  =      11.1494  a.u.
     unit-cell volume          =     346.4915 (a.u.)^3
     number of atoms/cell      =            2
     number of atomic types    =            1
     number of electrons       =         8.00
     number of Kohn-Sham states=            8
     kinetic-energy cutoff     =      30.0000  Ry
     charge density cutoff     =     240.0000  Ry
     convergence threshold     =      1.0E-06
     mixing beta               =       0.7000
     number of iterations used =            8  plain     mixing
     Exchange-correlation= PBE
                           (   1   4   3   4   0   0   0)
     nstep                     =            1


     celldm(1)=  11.149384  celldm(2)=   0.000000  celldm(3)=   0.000000
     celldm(4)=   0.000000  celldm(5)=   0.000000  celldm(6)=   0.000000

     crystal axes: (cart. coord. in units of alat)
               a(1) = (  -0.500000   0.000000   0.500000 )  
               a(2) = (   0.000000   0.500000   0.500000 )  
               a(3) = (  -0.500000   0.500000   0.000000 )  

     reciprocal axes: (cart. coord. in units 2 pi/alat)
               b(1) = ( -1.000000 -1.000000  1.000000 )  
               b(2) = (  1.000000  1.000000  1.000000 )  
               b(3) = ( -1.000000  1.000000 -1.000000 )  


     PseudoPot. # 1 for Si read from file:
     /home/jesus/Documentos/Nanociencia_DFT/pseudopotenciales/Si.pbe-n-rrkjus_psl.1.0.0.UPF
     MD5 check sum: fa25574f73a70a4139f2adfbefec430c
     Pseudo is Ultrasoft + core correction, Zval =  4.0
     Generated using "atomic" code by A. Dal Corso v.6.3
     Using radial grid of 1141 points,  6 beta functions with: 
                l(1) =   0
                l(2) =   0
                l(3) =   1
                l(4) =   1
                l(5) =   2
                l(6) =   2
     Q(r) pseudized with 0 coefficients 


     atomic species   valence    mass     pseudopotential
        Si             4.00    28.08550     Si( 1.00)

     48 Sym. Ops., with inversion, found (24 have fractional translation)



   Cartesian axes

     site n.     atom                  positions (alat units)
         1           Si  tau(   1) = (   0.0000000   0.0000000   0.0000000  )
         2           Si  tau(   2) = (  -0.2500000   0.2500000   0.2500000  )

     number of k points=    29  Methfessel-Paxton smearing, width (Ry)=  0.0100
                       cart. coord. in units 2pi/alat
        k(    1) = (   0.0000000   0.0000000   0.0000000), wk =   0.0039062
        k(    2) = (  -0.1250000   0.1250000  -0.1250000), wk =   0.0312500
        k(    3) = (  -0.2500000   0.2500000  -0.2500000), wk =   0.0312500
        k(    4) = (  -0.3750000   0.3750000  -0.3750000), wk =   0.0312500
        k(    5) = (   0.5000000  -0.5000000   0.5000000), wk =   0.0156250
        k(    6) = (   0.0000000   0.2500000   0.0000000), wk =   0.0234375
        k(    7) = (  -0.1250000   0.3750000  -0.1250000), wk =   0.0937500
        k(    8) = (  -0.2500000   0.5000000  -0.2500000), wk =   0.0937500
        k(    9) = (   0.6250000  -0.3750000   0.6250000), wk =   0.0937500
        k(   10) = (   0.5000000  -0.2500000   0.5000000), wk =   0.0937500
        k(   11) = (   0.3750000  -0.1250000   0.3750000), wk =   0.0937500
        k(   12) = (   0.2500000   0.0000000   0.2500000), wk =   0.0468750
        k(   13) = (   0.0000000   0.5000000   0.0000000), wk =   0.0234375
        k(   14) = (  -0.1250000   0.6250000  -0.1250000), wk =   0.0937500
        k(   15) = (   0.7500000  -0.2500000   0.7500000), wk =   0.0937500
        k(   16) = (   0.6250000  -0.1250000   0.6250000), wk =   0.0937500
        k(   17) = (   0.5000000   0.0000000   0.5000000), wk =   0.0468750
        k(   18) = (   0.0000000   0.7500000   0.0000000), wk =   0.0234375
        k(   19) = (   0.8750000  -0.1250000   0.8750000), wk =   0.0937500
        k(   20) = (   0.7500000   0.0000000   0.7500000), wk =   0.0468750
        k(   21) = (   0.0000000  -1.0000000   0.0000000), wk =   0.0117188
        k(   22) = (  -0.2500000   0.5000000   0.0000000), wk =   0.0937500
        k(   23) = (   0.6250000  -0.3750000   0.8750000), wk =   0.1875000
        k(   24) = (   0.5000000  -0.2500000   0.7500000), wk =   0.0937500
        k(   25) = (   0.7500000  -0.2500000   1.0000000), wk =   0.0937500
        k(   26) = (   0.6250000  -0.1250000   0.8750000), wk =   0.1875000
        k(   27) = (   0.5000000   0.0000000   0.7500000), wk =   0.0937500
        k(   28) = (  -0.2500000  -1.0000000   0.0000000), wk =   0.0468750
        k(   29) = (  -0.5000000  -1.0000000   0.0000000), wk =   0.0234375

     Dense  grid:    21883 G-vectors     FFT dimensions: (  40,  40,  40)

     Smooth grid:     7727 G-vectors     FFT dimensions: (  32,  32,  32)

     Estimated max dynamical RAM per process >      82.29 MB

     Initial potential from superposition of free atoms

     starting charge    7.99888, renormalised to    8.00000
     Starting wfcs are    8 randomized atomic wfcs

     total cpu time spent up to now is        1.6 secs

     Self-consistent Calculation

     iteration #  1     ecut=    30.00 Ry     beta= 0.70
     Davidson diagonalization with overlap
     ethr =  1.00E-02,  avg # of iterations =  3.1

     Threshold (ethr) on eigenvalues was too large:
     Diagonalizing with lowered threshold

     Davidson diagonalization with overlap
     ethr =  4.23E-04,  avg # of iterations =  2.3

     total cpu time spent up to now is        3.2 secs

     total energy              =     -22.80307786 Ry
     estimated scf accuracy    <       0.03666745 Ry

     iteration #  2     ecut=    30.00 Ry     beta= 0.70
     Davidson diagonalization with overlap
     ethr =  4.58E-04,  avg # of iterations =  1.0

     total cpu time spent up to now is        3.8 secs

     total energy              =     -22.80380509 Ry
     estimated scf accuracy    <       0.00226647 Ry

     iteration #  3     ecut=    30.00 Ry     beta= 0.70
     Davidson diagonalization with overlap
     ethr =  2.83E-05,  avg # of iterations =  4.4

     total cpu time spent up to now is        4.7 secs

     total energy              =     -22.80389272 Ry
     estimated scf accuracy    <       0.00001813 Ry

     iteration #  4     ecut=    30.00 Ry     beta= 0.70
     Davidson diagonalization with overlap
     ethr =  2.27E-07,  avg # of iterations =  4.0

     total cpu time spent up to now is        5.6 secs

     End of self-consistent calculation

          k = 0.0000 0.0000 0.0000 (   941 PWs)   bands (ev):

    -6.5490   3.8810   3.8810   3.8810   4.6438   6.3058   6.3058   6.3058

          k =-0.1250 0.1250-0.1250 (   950 PWs)   bands (ev):

    -6.3857   2.2019   3.6578   3.6578   5.3101   6.6373   6.6373   7.0889

          k =-0.2500 0.2500-0.2500 (   947 PWs)   bands (ev):

    -5.9141   0.2580   3.2729   3.2729   5.0103   7.1335   7.1336   9.0010

          k =-0.3750 0.3750-0.3750 (   950 PWs)   bands (ev):

    -5.2292  -1.3573   2.9940   2.9940   4.6947   7.2560   7.2561  10.8141

          k = 0.5000-0.5000 0.5000 (   960 PWs)   bands (ev):

    -4.7795  -2.1233   2.8966   2.8966   4.5788   7.2277   7.2277  11.1687

          k = 0.0000 0.2500 0.0000 (   945 PWs)   bands (ev):

    -6.3304   2.1851   3.2773   3.2773   5.8724   6.2275   7.1802   7.1802

          k =-0.1250 0.3750-0.1250 (   955 PWs)   bands (ev):

    -5.9573   0.6986   2.8331   2.8655   5.8722   6.5120   7.8372   8.2247

          k =-0.2500 0.5000-0.2500 (   964 PWs)   bands (ev):

    -5.3224  -0.9168   2.3229   2.6332   5.6687   6.9947   8.0038   8.9719

          k = 0.6250-0.3750 0.6250 (   962 PWs)   bands (ev):

    -4.6945  -2.0226   1.9651   2.6336   5.4993   7.1672   7.8089  10.4354

          k = 0.5000-0.2500 0.5000 (   958 PWs)   bands (ev):

    -4.8661  -1.7506   1.8512   2.8560   5.5302   7.3433   7.5958  10.6268

          k = 0.3750-0.1250 0.3750 (   960 PWs)   bands (ev):

    -5.5597  -0.4035   2.0379   3.2402   5.7381   7.2922   7.4434   9.1073

          k = 0.2500 0.0000 0.2500 (   953 PWs)   bands (ev):

    -6.1178   1.1510   2.6546   3.6233   5.8377   6.7706   6.8862   8.1528

          k = 0.0000 0.5000 0.0000 (   982 PWs)   bands (ev):

    -5.6837   0.2444   2.4159   2.4159   5.1858   6.6841   8.8328   8.8328

          k =-0.1250 0.6250-0.1250 (   968 PWs)   bands (ev):

    -5.1229  -0.8856   1.7978   2.1530   5.3737   6.6277   8.9311   9.3683

          k = 0.7500-0.2500 0.7500 (   963 PWs)   bands (ev):

    -4.4223  -1.9733   1.1098   2.1442   5.5107   7.8618   8.7222   9.2223

          k = 0.6250-0.1250 0.6250 (   965 PWs)   bands (ev):

    -4.2878  -2.1483   0.7703   2.3870   5.6945   8.4863   8.8270   9.9933

          k = 0.5000 0.0000 0.5000 (   959 PWs)   bands (ev):

    -4.9425  -1.2590   0.9997   2.8173   5.9905   8.1371   8.3861   8.8845

          k = 0.0000 0.7500 0.0000 (   970 PWs)   bands (ev):

    -4.6377  -1.5888   1.8333   1.8333   4.8164   5.6690  10.6680  10.6681

          k = 0.8750-0.1250 0.8750 (   967 PWs)   bands (ev):

    -3.9364  -2.4653   1.2438   1.7677   5.0824   5.9444  10.7586  10.9562

          k = 0.7500 0.0000 0.7500 (   967 PWs)   bands (ev):

    -3.6494  -2.7455   0.6229   1.9684   5.3078   7.7020  10.2557  10.3972

          k = 0.0000-1.0000 0.0000 (   982 PWs)   bands (ev):

    -3.2461  -3.2461   1.6323   1.6323   4.9595   4.9595  11.9810  11.9810

          k =-0.2500 0.5000 0.0000 (   961 PWs)   bands (ev):

    -5.4923  -0.2938   1.7987   2.7391   6.2221   6.7057   8.1073   8.6471

          k = 0.6250-0.3750 0.8750 (   960 PWs)   bands (ev):

    -4.8082  -1.5011   1.2563   2.3777   6.3587   7.1019   8.3973   9.1676

          k = 0.5000-0.2500 0.7500 (   960 PWs)   bands (ev):

    -4.3403  -2.1840   1.1101   2.2139   6.3094   7.0909   8.9618  10.1638

          k = 0.7500-0.2500 1.0000 (   952 PWs)   bands (ev):

    -4.4947  -1.7629   1.2901   1.7658   5.8576   6.4817   8.8386  10.6077

          k = 0.6250-0.1250 0.8750 (   962 PWs)   bands (ev):

    -3.8412  -2.5232   0.7803   1.6168   6.2236   7.8348   8.4649  10.1707

          k = 0.5000 0.0000 0.7500 (   962 PWs)   bands (ev):

    -4.1173  -2.2193   0.6589   1.8966   6.5341   7.9854   8.4922   9.9290

          k =-0.2500-1.0000 0.0000 (   968 PWs)   bands (ev):

    -3.2075  -3.2075   1.2614   1.2614   5.9293   5.9293  10.5403  10.5405

          k =-0.5000-1.0000 0.0000 (   952 PWs)   bands (ev):

    -3.1669  -3.1669   0.9671   0.9671   7.9486   7.9487   8.1279   8.1280

     the Fermi energy is     3.9899 ev

!    total energy              =     -22.80390089 Ry
     estimated scf accuracy    <       0.00000010 Ry
     smearing contrib. (-TS)   =       0.00000556 Ry
     internal energy E=F+TS    =     -22.80390645 Ry

     The total energy is F=E-TS. E is the sum of the following terms:
     one-electron contribution =       3.35717398 Ry
     hartree contribution      =       1.33290796 Ry
     xc contribution           =     -12.03326560 Ry
     ewald contribution        =     -15.46072279 Ry

     convergence has been achieved in   4 iterations

     Forces acting on atoms (cartesian axes, Ry/au):

     atom    1 type  1   force =    -0.00000000    0.00000000   -0.00000000
     atom    2 type  1   force =     0.00000000   -0.00000000    0.00000000

     Total force =     0.000000     Total SCF correction =     0.000000

     BFGS Geometry Optimization

     bfgs converged in   1 scf cycles and   0 bfgs steps
     (criteria: energy <  1.0E-04 Ry, force <  1.0E-03 Ry/Bohr)

     End of BFGS Geometry Optimization

     Final energy   =     -22.8039008913 Ry
Begin final coordinates

ATOMIC_POSITIONS (crystal)
Si            0.0000000000        0.0000000000        0.0000000000
Si            0.2500000000        0.2500000000        0.2500000000
End final coordinates



     Writing output data file /home/jesus/Documentos/Nanociencia_DFT/test.save/
 
     init_run     :      0.74s CPU      0.83s WALL (       1 calls)
     electrons    :      3.69s CPU      3.99s WALL (       1 calls)
     forces       :      0.12s CPU      0.16s WALL (       1 calls)

     Called by init_run:
     wfcinit      :      0.28s CPU      0.28s WALL (       1 calls)
     potinit      :      0.05s CPU      0.06s WALL (       1 calls)
     hinit0       :      0.31s CPU      0.32s WALL (       1 calls)

     Called by electrons:
     c_bands      :      2.70s CPU      2.72s WALL (       5 calls)
     sum_band     :      0.73s CPU      0.85s WALL (       5 calls)
     v_of_rho     :      0.15s CPU      0.16s WALL (       5 calls)
     newd         :      0.22s CPU      0.42s WALL (       5 calls)
     mix_rho      :      0.01s CPU      0.01s WALL (       5 calls)

     Called by c_bands:
     init_us_2    :      0.12s CPU      0.12s WALL (     348 calls)
     cegterg      :      2.21s CPU      2.23s WALL (     145 calls)

     Called by *egterg:
     cdiaghg      :      0.08s CPU      0.08s WALL (     550 calls)
     h_psi        :      2.13s CPU      2.15s WALL (     608 calls)
     s_psi        :      0.06s CPU      0.06s WALL (     608 calls)
     g_psi        :      0.01s CPU      0.01s WALL (     434 calls)

     Called by h_psi:
     h_psi:calbec :      0.09s CPU      0.09s WALL (     608 calls)
     vloc_psi     :      1.95s CPU      1.97s WALL (     608 calls)
     add_vuspsi   :      0.07s CPU      0.07s WALL (     608 calls)

     General routines
     calbec       :      0.12s CPU      0.12s WALL (     869 calls)
     fft          :      0.06s CPU      0.06s WALL (      75 calls)
     ffts         :      0.00s CPU      0.00s WALL (      10 calls)
     fftw         :      1.84s CPU      1.85s WALL (    7860 calls)
     interpolate  :      0.01s CPU      0.01s WALL (       5 calls)
 
     Parallel routines
 
     PWSCF        :      5.27s CPU      5.75s WALL

 
   This run was terminated on:  22:34:18  15Mar2021            

=------------------------------------------------------------------------------=
   JOB DONE.
=------------------------------------------------------------------------------=
