
     Program PWSCF v.6.6 starts on 15Mar2021 at 22:33:29 

     This program is part of the open-source Quantum ESPRESSO suite
     for quantum simulation of materials; please cite
         "P. Giannozzi et al., J. Phys.:Condens. Matter 21 395502 (2009);
         "P. Giannozzi et al., J. Phys.:Condens. Matter 29 465901 (2017);
          URL http://www.quantum-espresso.org", 
     in publications or presentations arising from this work. More details at
     http://www.quantum-espresso.org/quote

     Parallel version (MPI), running on     1 processors

     MPI processes distributed on     1 nodes
     Fft bands division:     nmany     =       1
     Waiting for input...
     Reading input from standard input
Warning: card &CELL ignored
Warning: card   CELL_DYNAMICS='BFGS', ignored
Warning: card   CELL_DOFREE='ALL', ignored
Warning: card / ignored

     Current dimensions of program PWSCF are:
     Max number of different atomic species (ntypx) = 10
     Max number of k-points (npk) =  40000
     Max angular momentum in pseudopotentials (lmaxx) =  3

     Subspace diagonalization in iterative solution of the eigenvalue problem:
     a serial algorithm will be used

 
     G-vector sticks info
     --------------------
     sticks:   dense  smooth     PW     G-vecs:    dense   smooth      PW
     Sum         769     379    121                14163     4957     941
 


     bravais-lattice index     =            2
     lattice parameter (alat)  =       9.6376  a.u.
     unit-cell volume          =     223.7933 (a.u.)^3
     number of atoms/cell      =            2
     number of atomic types    =            1
     number of electrons       =         8.00
     number of Kohn-Sham states=            8
     kinetic-energy cutoff     =      30.0000  Ry
     charge density cutoff     =     240.0000  Ry
     convergence threshold     =      1.0E-06
     mixing beta               =       0.7000
     number of iterations used =            8  plain     mixing
     Exchange-correlation= PBE
                           (   1   4   3   4   0   0   0)
     nstep                     =            1


     celldm(1)=   9.637603  celldm(2)=   0.000000  celldm(3)=   0.000000
     celldm(4)=   0.000000  celldm(5)=   0.000000  celldm(6)=   0.000000

     crystal axes: (cart. coord. in units of alat)
               a(1) = (  -0.500000   0.000000   0.500000 )  
               a(2) = (   0.000000   0.500000   0.500000 )  
               a(3) = (  -0.500000   0.500000   0.000000 )  

     reciprocal axes: (cart. coord. in units 2 pi/alat)
               b(1) = ( -1.000000 -1.000000  1.000000 )  
               b(2) = (  1.000000  1.000000  1.000000 )  
               b(3) = ( -1.000000  1.000000 -1.000000 )  


     PseudoPot. # 1 for Si read from file:
     /home/jesus/Documentos/Nanociencia_DFT/pseudopotenciales/Si.pbe-n-rrkjus_psl.1.0.0.UPF
     MD5 check sum: fa25574f73a70a4139f2adfbefec430c
     Pseudo is Ultrasoft + core correction, Zval =  4.0
     Generated using "atomic" code by A. Dal Corso v.6.3
     Using radial grid of 1141 points,  6 beta functions with: 
                l(1) =   0
                l(2) =   0
                l(3) =   1
                l(4) =   1
                l(5) =   2
                l(6) =   2
     Q(r) pseudized with 0 coefficients 


     atomic species   valence    mass     pseudopotential
        Si             4.00    28.08550     Si( 1.00)

     48 Sym. Ops., with inversion, found (24 have fractional translation)



   Cartesian axes

     site n.     atom                  positions (alat units)
         1           Si  tau(   1) = (   0.0000000   0.0000000   0.0000000  )
         2           Si  tau(   2) = (  -0.2500000   0.2500000   0.2500000  )

     number of k points=    29  Methfessel-Paxton smearing, width (Ry)=  0.0100
                       cart. coord. in units 2pi/alat
        k(    1) = (   0.0000000   0.0000000   0.0000000), wk =   0.0039062
        k(    2) = (  -0.1250000   0.1250000  -0.1250000), wk =   0.0312500
        k(    3) = (  -0.2500000   0.2500000  -0.2500000), wk =   0.0312500
        k(    4) = (  -0.3750000   0.3750000  -0.3750000), wk =   0.0312500
        k(    5) = (   0.5000000  -0.5000000   0.5000000), wk =   0.0156250
        k(    6) = (   0.0000000   0.2500000   0.0000000), wk =   0.0234375
        k(    7) = (  -0.1250000   0.3750000  -0.1250000), wk =   0.0937500
        k(    8) = (  -0.2500000   0.5000000  -0.2500000), wk =   0.0937500
        k(    9) = (   0.6250000  -0.3750000   0.6250000), wk =   0.0937500
        k(   10) = (   0.5000000  -0.2500000   0.5000000), wk =   0.0937500
        k(   11) = (   0.3750000  -0.1250000   0.3750000), wk =   0.0937500
        k(   12) = (   0.2500000   0.0000000   0.2500000), wk =   0.0468750
        k(   13) = (   0.0000000   0.5000000   0.0000000), wk =   0.0234375
        k(   14) = (  -0.1250000   0.6250000  -0.1250000), wk =   0.0937500
        k(   15) = (   0.7500000  -0.2500000   0.7500000), wk =   0.0937500
        k(   16) = (   0.6250000  -0.1250000   0.6250000), wk =   0.0937500
        k(   17) = (   0.5000000   0.0000000   0.5000000), wk =   0.0468750
        k(   18) = (   0.0000000   0.7500000   0.0000000), wk =   0.0234375
        k(   19) = (   0.8750000  -0.1250000   0.8750000), wk =   0.0937500
        k(   20) = (   0.7500000   0.0000000   0.7500000), wk =   0.0468750
        k(   21) = (   0.0000000  -1.0000000   0.0000000), wk =   0.0117188
        k(   22) = (  -0.2500000   0.5000000   0.0000000), wk =   0.0937500
        k(   23) = (   0.6250000  -0.3750000   0.8750000), wk =   0.1875000
        k(   24) = (   0.5000000  -0.2500000   0.7500000), wk =   0.0937500
        k(   25) = (   0.7500000  -0.2500000   1.0000000), wk =   0.0937500
        k(   26) = (   0.6250000  -0.1250000   0.8750000), wk =   0.1875000
        k(   27) = (   0.5000000   0.0000000   0.7500000), wk =   0.0937500
        k(   28) = (  -0.2500000  -1.0000000   0.0000000), wk =   0.0468750
        k(   29) = (  -0.5000000  -1.0000000   0.0000000), wk =   0.0234375

     Dense  grid:    14163 G-vectors     FFT dimensions: (  36,  36,  36)

     Smooth grid:     4957 G-vectors     FFT dimensions: (  24,  24,  24)

     Estimated max dynamical RAM per process >      54.06 MB

     Initial potential from superposition of free atoms

     starting charge    7.99888, renormalised to    8.00000
     Starting wfcs are    8 randomized atomic wfcs

     total cpu time spent up to now is        1.1 secs

     Self-consistent Calculation

     iteration #  1     ecut=    30.00 Ry     beta= 0.70
     Davidson diagonalization with overlap
     ethr =  1.00E-02,  avg # of iterations =  4.4

     Threshold (ethr) on eigenvalues was too large:
     Diagonalizing with lowered threshold

     Davidson diagonalization with overlap
     ethr =  8.72E-04,  avg # of iterations =  1.6

     total cpu time spent up to now is        2.0 secs

     total energy              =     -22.79213850 Ry
     estimated scf accuracy    <       0.07452209 Ry

     iteration #  2     ecut=    30.00 Ry     beta= 0.70
     Davidson diagonalization with overlap
     ethr =  9.32E-04,  avg # of iterations =  1.1

     total cpu time spent up to now is        2.6 secs

     total energy              =     -22.79652656 Ry
     estimated scf accuracy    <       0.00201834 Ry

     iteration #  3     ecut=    30.00 Ry     beta= 0.70
     Davidson diagonalization with overlap
     ethr =  2.52E-05,  avg # of iterations =  4.9

     total cpu time spent up to now is        3.1 secs

     total energy              =     -22.79669945 Ry
     estimated scf accuracy    <       0.00006432 Ry

     iteration #  4     ecut=    30.00 Ry     beta= 0.70
     Davidson diagonalization with overlap
     ethr =  8.04E-07,  avg # of iterations =  3.2

     total cpu time spent up to now is        3.6 secs

     End of self-consistent calculation

          k = 0.0000 0.0000 0.0000 (   609 PWs)   bands (ev):

    -5.0193   8.3552   8.3552   8.3552  10.9694  10.9694  10.9694  14.0029

          k =-0.1250 0.1250-0.1250 (   618 PWs)   bands (ev):

    -4.7801   6.6306   8.0059   8.0059  11.2569  11.4798  11.4798  15.0278

          k =-0.2500 0.2500-0.2500 (   610 PWs)   bands (ev):

    -4.0777   3.9970   7.4668   7.4668  10.9860  11.9771  11.9771  15.6273

          k =-0.3750 0.3750-0.3750 (   613 PWs)   bands (ev):

    -2.9979   1.6432   7.1073   7.1073  10.6746  11.7321  11.7321  16.5568

          k = 0.5000-0.5000 0.5000 (   610 PWs)   bands (ev):

    -2.1658   0.3744   6.9871   6.9871  10.5602  11.5482  11.5483  16.2909

          k = 0.0000 0.2500 0.0000 (   609 PWs)   bands (ev):

    -4.6998   7.1508   7.3566   7.3566  10.3203  12.3533  12.3533  13.8609

          k =-0.1250 0.3750-0.1250 (   609 PWs)   bands (ev):

    -4.1490   4.8971   6.7605   6.9810  10.5023  12.7436  13.0702  13.1868

          k =-0.2500 0.5000-0.2500 (   620 PWs)   bands (ev):

    -3.1765   2.4825   6.3084   6.4677  10.6395  12.4646  12.9889  14.0992

          k = 0.6250-0.3750 0.6250 (   616 PWs)   bands (ev):

    -2.0876   0.6978   5.7767   6.5207  10.6445  12.2338  12.4713  16.3276

          k = 0.5000-0.2500 0.5000 (   621 PWs)   bands (ev):

    -2.4087   1.1640   5.5288   6.8892  10.9891  12.2094  12.2315  17.0138

          k = 0.3750-0.1250 0.3750 (   620 PWs)   bands (ev):

    -3.5437   3.2617   5.6443   7.4797  11.5608  12.1387  12.4126  14.7996

          k = 0.2500 0.0000 0.2500 (   614 PWs)   bands (ev):

    -4.3852   5.5345   6.3543   8.0470  11.6078  11.9582  11.9786  14.8480

          k = 0.0000 0.5000 0.0000 (   632 PWs)   bands (ev):

    -3.7515   4.8341   6.0821   6.0821   9.2672  11.2858  14.7336  14.7336

          k =-0.1250 0.6250-0.1250 (   616 PWs)   bands (ev):

    -2.9121   3.1460   5.1710   5.7186   9.4754  11.0646  15.1580  15.2013

          k = 0.7500-0.2500 0.7500 (   620 PWs)   bands (ev):

    -1.7785   1.3670   4.1686   5.7352   9.6018  12.8797  14.6155  15.0839

          k = 0.6250-0.1250 0.6250 (   628 PWs)   bands (ev):

    -1.4983   1.0172   3.6039   6.1232  10.0140  14.1260  14.2897  16.1564

          k = 0.5000 0.0000 0.5000 (   624 PWs)   bands (ev):

    -2.5939   2.4598   3.8174   6.8004  10.8185  13.5120  13.9103  15.5421

          k = 0.0000 0.7500 0.0000 (   628 PWs)   bands (ev):

    -2.2093   2.2846   5.2523   5.2523   8.6090   9.4709  17.3272  17.3273

          k = 0.8750-0.1250 0.8750 (   626 PWs)   bands (ev):

    -1.1380   1.0263   4.1836   5.1682   8.8565  10.1113  17.3880  17.8228

          k = 0.7500 0.0000 0.7500 (   626 PWs)   bands (ev):

    -0.5319   0.5127   3.0783   5.4765   9.2186  12.5827  16.6254  17.2803

          k = 0.0000-1.0000 0.0000 (   636 PWs)   bands (ev):

    -0.1480  -0.1480   4.9691   4.9691   8.6230   8.6231  20.1468  20.1470

          k =-0.2500 0.5000 0.0000 (   618 PWs)   bands (ev):

    -3.4550   3.8315   5.0713   6.6833  10.8280  12.2925  12.9543  14.4103

          k = 0.6250-0.3750 0.8750 (   624 PWs)   bands (ev):

    -2.3841   1.9569   4.4517   6.0367  11.2337  12.0971  13.6993  14.8833

          k = 0.5000-0.2500 0.7500 (   620 PWs)   bands (ev):

    -1.5423   0.7521   4.3549   5.7375  11.3134  11.7466  14.7472  16.1037

          k = 0.7500-0.2500 1.0000 (   614 PWs)   bands (ev):

    -1.9586   2.0362   4.2955   4.9912  10.1949  10.8001  14.7188  17.2264

          k = 0.6250-0.1250 0.8750 (   628 PWs)   bands (ev):

    -0.8694   0.8711   3.4216   4.7470  10.6253  12.6930  14.1952  16.5046

          k = 0.5000 0.0000 0.7500 (   629 PWs)   bands (ev):

    -1.2897   1.2889   3.2073   5.2158  11.1813  13.1322  13.9641  15.9228

          k =-0.2500-1.0000 0.0000 (   632 PWs)   bands (ev):

    -0.0232  -0.0232   4.2036   4.2036  10.1375  10.1375  17.0125  17.0125

          k =-0.5000-1.0000 0.0000 (   616 PWs)   bands (ev):

     0.1222   0.1222   3.6203   3.6203  12.5925  12.5925  13.9708  13.9708

     the Fermi energy is     8.4968 ev

!    total energy              =     -22.79670908 Ry
     estimated scf accuracy    <       0.00000017 Ry
     smearing contrib. (-TS)   =       0.00002427 Ry
     internal energy E=F+TS    =     -22.79673335 Ry

     The total energy is F=E-TS. E is the sum of the following terms:
     one-electron contribution =       6.70454882 Ry
     hartree contribution      =       0.94007640 Ry
     xc contribution           =     -12.55542435 Ry
     ewald contribution        =     -17.88593421 Ry

     convergence has been achieved in   4 iterations

     Forces acting on atoms (cartesian axes, Ry/au):

     atom    1 type  1   force =    -0.00000000   -0.00000000    0.00000000
     atom    2 type  1   force =     0.00000000    0.00000000   -0.00000000

     Total force =     0.000000     Total SCF correction =     0.000000

     BFGS Geometry Optimization

     bfgs converged in   1 scf cycles and   0 bfgs steps
     (criteria: energy <  1.0E-04 Ry, force <  1.0E-03 Ry/Bohr)

     End of BFGS Geometry Optimization

     Final energy   =     -22.7967090761 Ry
Begin final coordinates

ATOMIC_POSITIONS (crystal)
Si            0.0000000000        0.0000000000        0.0000000000
Si            0.2500000000        0.2500000000        0.2500000000
End final coordinates



     Writing output data file /home/jesus/Documentos/Nanociencia_DFT/test.save/
 
     init_run     :      0.38s CPU      0.42s WALL (       1 calls)
     electrons    :      2.37s CPU      2.57s WALL (       1 calls)
     forces       :      0.09s CPU      0.11s WALL (       1 calls)

     Called by init_run:
     wfcinit      :      0.09s CPU      0.10s WALL (       1 calls)
     potinit      :      0.03s CPU      0.03s WALL (       1 calls)
     hinit0       :      0.23s CPU      0.23s WALL (       1 calls)

     Called by electrons:
     c_bands      :      1.67s CPU      1.69s WALL (       5 calls)
     sum_band     :      0.44s CPU      0.54s WALL (       5 calls)
     v_of_rho     :      0.11s CPU      0.12s WALL (       5 calls)
     newd         :      0.18s CPU      0.27s WALL (       5 calls)
     mix_rho      :      0.01s CPU      0.01s WALL (       5 calls)

     Called by c_bands:
     init_us_2    :      0.07s CPU      0.08s WALL (     348 calls)
     cegterg      :      1.36s CPU      1.37s WALL (     145 calls)

     Called by *egterg:
     cdiaghg      :      0.07s CPU      0.07s WALL (     557 calls)
     h_psi        :      1.22s CPU      1.23s WALL (     615 calls)
     s_psi        :      0.04s CPU      0.04s WALL (     615 calls)
     g_psi        :      0.01s CPU      0.01s WALL (     441 calls)

     Called by h_psi:
     h_psi:calbec :      0.05s CPU      0.05s WALL (     615 calls)
     vloc_psi     :      1.11s CPU      1.13s WALL (     615 calls)
     add_vuspsi   :      0.04s CPU      0.04s WALL (     615 calls)

     General routines
     calbec       :      0.07s CPU      0.08s WALL (     876 calls)
     fft          :      0.04s CPU      0.04s WALL (      75 calls)
     ffts         :      0.00s CPU      0.00s WALL (      10 calls)
     fftw         :      1.15s CPU      1.17s WALL (    7848 calls)
     interpolate  :      0.00s CPU      0.00s WALL (       5 calls)
 
     Parallel routines
 
     PWSCF        :      3.47s CPU      3.77s WALL

 
   This run was terminated on:  22:33:33  15Mar2021            

=------------------------------------------------------------------------------=
   JOB DONE.
=------------------------------------------------------------------------------=
