
     Program PWSCF v.6.6 starts on  2Apr2021 at 16:52:31 

     This program is part of the open-source Quantum ESPRESSO suite
     for quantum simulation of materials; please cite
         "P. Giannozzi et al., J. Phys.:Condens. Matter 21 395502 (2009);
         "P. Giannozzi et al., J. Phys.:Condens. Matter 29 465901 (2017);
          URL http://www.quantum-espresso.org", 
     in publications or presentations arising from this work. More details at
     http://www.quantum-espresso.org/quote

     Parallel version (MPI), running on     1 processors

     MPI processes distributed on     1 nodes
     Fft bands division:     nmany     =       1
     Waiting for input...
     Reading input from standard input
Warning: card &CELL ignored
Warning: card   CELL_DYNAMICS='BFGS', ignored
Warning: card   CELL_DOFREE='ALL', ignored
Warning: card / ignored

     Current dimensions of program PWSCF are:
     Max number of different atomic species (ntypx) = 10
     Max number of k-points (npk) =  40000
     Max angular momentum in pseudopotentials (lmaxx) =  3

     Subspace diagonalization in iterative solution of the eigenvalue problem:
     a serial algorithm will be used

 
     G-vector sticks info
     --------------------
     sticks:   dense  smooth     PW     G-vecs:    dense   smooth      PW
     Sum         877     439    151                17261     6183    1139
 


     bravais-lattice index     =            2
     lattice parameter (alat)  =      10.3368  a.u.
     unit-cell volume          =     276.1205 (a.u.)^3
     number of atoms/cell      =            2
     number of atomic types    =            1
     number of electrons       =         8.00
     number of Kohn-Sham states=            8
     kinetic-energy cutoff     =      30.0000  Ry
     charge density cutoff     =     240.0000  Ry
     convergence threshold     =      1.0E-06
     mixing beta               =       0.7000
     number of iterations used =            8  plain     mixing
     Exchange-correlation= PBE
                           (   1   4   3   4   0   0   0)
     nstep                     =            1


     celldm(1)=  10.336802  celldm(2)=   0.000000  celldm(3)=   0.000000
     celldm(4)=   0.000000  celldm(5)=   0.000000  celldm(6)=   0.000000

     crystal axes: (cart. coord. in units of alat)
               a(1) = (  -0.500000   0.000000   0.500000 )  
               a(2) = (   0.000000   0.500000   0.500000 )  
               a(3) = (  -0.500000   0.500000   0.000000 )  

     reciprocal axes: (cart. coord. in units 2 pi/alat)
               b(1) = ( -1.000000 -1.000000  1.000000 )  
               b(2) = (  1.000000  1.000000  1.000000 )  
               b(3) = ( -1.000000  1.000000 -1.000000 )  


     PseudoPot. # 1 for Si read from file:
     /home/jesus/Documentos/Nanociencia_DFT/pseudopotenciales/Si.pbe-n-rrkjus_psl.1.0.0.UPF
     MD5 check sum: fa25574f73a70a4139f2adfbefec430c
     Pseudo is Ultrasoft + core correction, Zval =  4.0
     Generated using "atomic" code by A. Dal Corso v.6.3
     Using radial grid of 1141 points,  6 beta functions with: 
                l(1) =   0
                l(2) =   0
                l(3) =   1
                l(4) =   1
                l(5) =   2
                l(6) =   2
     Q(r) pseudized with 0 coefficients 


     atomic species   valence    mass     pseudopotential
        Si             4.00    28.08550     Si( 1.00)

     48 Sym. Ops., with inversion, found (24 have fractional translation)



   Cartesian axes

     site n.     atom                  positions (alat units)
         1           Si  tau(   1) = (   0.0000000   0.0000000   0.0000000  )
         2           Si  tau(   2) = (  -0.2500000   0.2500000   0.2500000  )

     number of k points=    29  Methfessel-Paxton smearing, width (Ry)=  0.0100
                       cart. coord. in units 2pi/alat
        k(    1) = (   0.0000000   0.0000000   0.0000000), wk =   0.0039062
        k(    2) = (  -0.1250000   0.1250000  -0.1250000), wk =   0.0312500
        k(    3) = (  -0.2500000   0.2500000  -0.2500000), wk =   0.0312500
        k(    4) = (  -0.3750000   0.3750000  -0.3750000), wk =   0.0312500
        k(    5) = (   0.5000000  -0.5000000   0.5000000), wk =   0.0156250
        k(    6) = (   0.0000000   0.2500000   0.0000000), wk =   0.0234375
        k(    7) = (  -0.1250000   0.3750000  -0.1250000), wk =   0.0937500
        k(    8) = (  -0.2500000   0.5000000  -0.2500000), wk =   0.0937500
        k(    9) = (   0.6250000  -0.3750000   0.6250000), wk =   0.0937500
        k(   10) = (   0.5000000  -0.2500000   0.5000000), wk =   0.0937500
        k(   11) = (   0.3750000  -0.1250000   0.3750000), wk =   0.0937500
        k(   12) = (   0.2500000   0.0000000   0.2500000), wk =   0.0468750
        k(   13) = (   0.0000000   0.5000000   0.0000000), wk =   0.0234375
        k(   14) = (  -0.1250000   0.6250000  -0.1250000), wk =   0.0937500
        k(   15) = (   0.7500000  -0.2500000   0.7500000), wk =   0.0937500
        k(   16) = (   0.6250000  -0.1250000   0.6250000), wk =   0.0937500
        k(   17) = (   0.5000000   0.0000000   0.5000000), wk =   0.0468750
        k(   18) = (   0.0000000   0.7500000   0.0000000), wk =   0.0234375
        k(   19) = (   0.8750000  -0.1250000   0.8750000), wk =   0.0937500
        k(   20) = (   0.7500000   0.0000000   0.7500000), wk =   0.0468750
        k(   21) = (   0.0000000  -1.0000000   0.0000000), wk =   0.0117188
        k(   22) = (  -0.2500000   0.5000000   0.0000000), wk =   0.0937500
        k(   23) = (   0.6250000  -0.3750000   0.8750000), wk =   0.1875000
        k(   24) = (   0.5000000  -0.2500000   0.7500000), wk =   0.0937500
        k(   25) = (   0.7500000  -0.2500000   1.0000000), wk =   0.0937500
        k(   26) = (   0.6250000  -0.1250000   0.8750000), wk =   0.1875000
        k(   27) = (   0.5000000   0.0000000   0.7500000), wk =   0.0937500
        k(   28) = (  -0.2500000  -1.0000000   0.0000000), wk =   0.0468750
        k(   29) = (  -0.5000000  -1.0000000   0.0000000), wk =   0.0234375

     Dense  grid:    17261 G-vectors     FFT dimensions: (  40,  40,  40)

     Smooth grid:     6183 G-vectors     FFT dimensions: (  32,  32,  32)

     Estimated max dynamical RAM per process >      66.14 MB

     Initial potential from superposition of free atoms

     starting charge    7.99888, renormalised to    8.00000
     Starting wfcs are    8 randomized atomic wfcs

     total cpu time spent up to now is        1.3 secs

     Self-consistent Calculation

     iteration #  1     ecut=    30.00 Ry     beta= 0.70
     Davidson diagonalization with overlap
     ethr =  1.00E-02,  avg # of iterations =  3.8

     Threshold (ethr) on eigenvalues was too large:
     Diagonalizing with lowered threshold

     Davidson diagonalization with overlap
     ethr =  6.24E-04,  avg # of iterations =  1.8

     total cpu time spent up to now is        2.6 secs

     total energy              =     -22.83740887 Ry
     estimated scf accuracy    <       0.05368875 Ry

     iteration #  2     ecut=    30.00 Ry     beta= 0.70
     Davidson diagonalization with overlap
     ethr =  6.71E-04,  avg # of iterations =  1.2

     total cpu time spent up to now is        3.2 secs

     total energy              =     -22.83955707 Ry
     estimated scf accuracy    <       0.00222573 Ry

     iteration #  3     ecut=    30.00 Ry     beta= 0.70
     Davidson diagonalization with overlap
     ethr =  2.78E-05,  avg # of iterations =  4.9

     total cpu time spent up to now is        3.9 secs

     total energy              =     -22.83970210 Ry
     estimated scf accuracy    <       0.00004702 Ry

     iteration #  4     ecut=    30.00 Ry     beta= 0.70
     Davidson diagonalization with overlap
     ethr =  5.88E-07,  avg # of iterations =  4.1

     total cpu time spent up to now is        4.6 secs

     End of self-consistent calculation

          k = 0.0000 0.0000 0.0000 (   749 PWs)   bands (ev):

    -5.8350   5.9796   5.9796   5.9796   8.5333   8.5333   8.5333   9.0924

          k =-0.1250 0.1250-0.1250 (   770 PWs)   bands (ev):

    -5.6347   4.3860   5.6965   5.6965   8.4161   8.9492   8.9492  10.4979

          k =-0.2500 0.2500-0.2500 (   778 PWs)   bands (ev):

    -5.0509   2.0900   5.2330   5.2330   7.9322   9.4681   9.4681  12.7180

          k =-0.3750 0.3750-0.3750 (   763 PWs)   bands (ev):

    -4.1771   0.1061   4.9097   4.9097   7.5679   9.4331   9.4331  13.8168

          k = 0.5000-0.5000 0.5000 (   778 PWs)   bands (ev):

    -3.5584  -0.8915   4.7989   4.7989   7.4399   9.3301   9.3301  13.6837

          k = 0.0000 0.2500 0.0000 (   769 PWs)   bands (ev):

    -5.5672   4.6238   5.1919   5.1919   7.9932   9.6490   9.6491  10.1840

          k =-0.1250 0.3750-0.1250 (   774 PWs)   bands (ev):

    -5.1076   2.7701   4.6889   4.7523   8.1234   9.5970  10.4053  10.7212

          k =-0.2500 0.5000-0.2500 (   775 PWs)   bands (ev):

    -4.3097   0.7486   4.1686   4.4237   8.2059   9.5686  10.4213  11.4216

          k = 0.6250-0.3750 0.6250 (   767 PWs)   bands (ev):

    -3.4715  -0.6811   3.7315   4.4455   8.1398   9.4676  10.0742  13.2834

          k = 0.5000-0.2500 0.5000 (   768 PWs)   bands (ev):

    -3.7085  -0.3201   3.5564   4.7348   8.2878   9.5882   9.8440  13.8027

          k = 0.3750-0.1250 0.3750 (   773 PWs)   bands (ev):

    -4.6094   1.3947   3.7110   5.2164   8.6296   9.6391   9.8160  12.1868

          k = 0.2500 0.0000 0.2500 (   775 PWs)   bands (ev):

    -5.3050   3.3014   4.3889   5.6888   8.9404   9.0857   9.3102  11.4014

          k = 0.0000 0.5000 0.0000 (   769 PWs)   bands (ev):

    -4.7735   2.4566   4.1289   4.1289   7.1306   9.1166  11.6670  11.6670

          k =-0.1250 0.6250-0.1250 (   768 PWs)   bands (ev):

    -4.0775   1.0601   3.3629   3.8156   7.3509   8.8844  11.8844  12.1858

          k = 0.7500-0.2500 0.7500 (   768 PWs)   bands (ev):

    -3.1733  -0.3474   2.5151   3.8174   7.5222  10.4138  11.6205  11.8571

          k = 0.6250-0.1250 0.6250 (   767 PWs)   bands (ev):

    -2.9764  -0.5972   2.0679   4.1287   7.8358  11.3810  11.4216  12.8611

          k = 0.5000 0.0000 0.5000 (   762 PWs)   bands (ev):

    -3.8327   0.5363   2.3088   4.6752   8.4159  10.7250  11.0653  12.0130

          k = 0.0000 0.7500 0.0000 (   765 PWs)   bands (ev):

    -3.4860   0.2633   3.4244   3.4244   6.6309   7.5579  13.9125  13.9126

          k = 0.8750-0.1250 0.8750 (   762 PWs)   bands (ev):

    -2.6073  -0.8027   2.6194   3.3491   6.9120   7.9662  14.1508  14.2031

          k = 0.7500 0.0000 0.7500 (   762 PWs)   bands (ev):

    -2.1845  -1.1877   1.7777   3.6013   7.2151  10.0935  13.3547  13.8960

          k = 0.0000-1.0000 0.0000 (   774 PWs)   bands (ev):

    -1.7698  -1.7698   3.1827   3.1827   6.7329   6.7329  15.8976  15.8976

          k =-0.2500 0.5000 0.0000 (   765 PWs)   bands (ev):

    -4.5313   1.7072   3.3256   4.5774   8.4222   9.8002  10.1877  11.4192

          k = 0.6250-0.3750 0.8750 (   768 PWs)   bands (ev):

    -3.6626   0.1882   2.7214   4.0899   8.8435   9.5090  10.9570  11.8584

          k = 0.5000-0.2500 0.7500 (   764 PWs)   bands (ev):

    -3.0289  -0.7307   2.5899   3.8669   9.0004   9.1289  11.8249  13.0497

          k = 0.7500-0.2500 1.0000 (   763 PWs)   bands (ev):

    -3.2928   0.0481   2.6898   3.2816   7.9360   8.6406  11.6628  13.8644

          k = 0.6250-0.1250 0.8750 (   757 PWs)   bands (ev):

    -2.4399  -0.8999   2.0099   3.0857   8.3760  10.2515  11.1896  13.3285

          k = 0.5000 0.0000 0.7500 (   755 PWs)   bands (ev):

    -2.7833  -0.5422   1.8477   3.4523   8.8451  10.4950  11.1452  12.9428

          k =-0.2500-1.0000 0.0000 (   760 PWs)   bands (ev):

    -1.6961  -1.6961   2.6384   2.6384   7.9671   7.9671  13.7281  13.7281

          k =-0.5000-1.0000 0.0000 (   744 PWs)   bands (ev):

    -1.6154  -1.6154   2.2170   2.2170  10.2549  10.2550  10.9063  10.9063

     the Fermi energy is     6.5313 ev

!    total energy              =     -22.83970898 Ry
     estimated scf accuracy    <       0.00000008 Ry
     smearing contrib. (-TS)   =       0.00001462 Ry
     internal energy E=F+TS    =     -22.83972359 Ry

     The total energy is F=E-TS. E is the sum of the following terms:
     one-electron contribution =       4.99877624 Ry
     hartree contribution      =       1.12052638 Ry
     xc contribution           =     -12.28292668 Ry
     ewald contribution        =     -16.67609954 Ry

     convergence has been achieved in   4 iterations

     Forces acting on atoms (cartesian axes, Ry/au):

     atom    1 type  1   force =     0.00000000    0.00000000    0.00000000
     atom    2 type  1   force =    -0.00000000   -0.00000000   -0.00000000

     Total force =     0.000000     Total SCF correction =     0.000000

     BFGS Geometry Optimization

     bfgs converged in   1 scf cycles and   0 bfgs steps
     (criteria: energy <  1.0E-04 Ry, force <  1.0E-03 Ry/Bohr)

     End of BFGS Geometry Optimization

     Final energy   =     -22.8397089782 Ry
Begin final coordinates

ATOMIC_POSITIONS (crystal)
Si            0.0000000000        0.0000000000        0.0000000000
Si            0.2500000000        0.2500000000        0.2500000000
End final coordinates



     Writing output data file /home/jesus/Documentos/Nanociencia_DFT/test.save/
 
     init_run     :      0.52s CPU      0.62s WALL (       1 calls)
     electrons    :      3.02s CPU      3.29s WALL (       1 calls)
     forces       :      0.10s CPU      0.13s WALL (       1 calls)

     Called by init_run:
     wfcinit      :      0.15s CPU      0.17s WALL (       1 calls)
     potinit      :      0.04s CPU      0.05s WALL (       1 calls)
     hinit0       :      0.27s CPU      0.30s WALL (       1 calls)

     Called by electrons:
     c_bands      :      2.21s CPU      2.24s WALL (       5 calls)
     sum_band     :      0.56s CPU      0.69s WALL (       5 calls)
     v_of_rho     :      0.14s CPU      0.16s WALL (       5 calls)
     newd         :      0.18s CPU      0.31s WALL (       5 calls)
     mix_rho      :      0.01s CPU      0.01s WALL (       5 calls)

     Called by c_bands:
     init_us_2    :      0.08s CPU      0.09s WALL (     348 calls)
     cegterg      :      1.86s CPU      1.89s WALL (     145 calls)

     Called by *egterg:
     cdiaghg      :      0.07s CPU      0.07s WALL (     573 calls)
     h_psi        :      1.76s CPU      1.81s WALL (     631 calls)
     s_psi        :      0.04s CPU      0.04s WALL (     631 calls)
     g_psi        :      0.01s CPU      0.01s WALL (     457 calls)

     Called by h_psi:
     h_psi:calbec :      0.06s CPU      0.06s WALL (     631 calls)
     vloc_psi     :      1.65s CPU      1.69s WALL (     631 calls)
     add_vuspsi   :      0.04s CPU      0.04s WALL (     631 calls)

     General routines
     calbec       :      0.08s CPU      0.08s WALL (     892 calls)
     fft          :      0.05s CPU      0.07s WALL (      75 calls)
     ffts         :      0.00s CPU      0.00s WALL (      10 calls)
     fftw         :      1.65s CPU      1.69s WALL (    7852 calls)
     interpolate  :      0.01s CPU      0.01s WALL (       5 calls)
 
     Parallel routines
 
     PWSCF        :      4.31s CPU      4.74s WALL

 
   This run was terminated on:  16:52:36   2Apr2021            

=------------------------------------------------------------------------------=
   JOB DONE.
=------------------------------------------------------------------------------=
