
     Program PWSCF v.6.6 starts on 15Mar2021 at 22:34:24 

     This program is part of the open-source Quantum ESPRESSO suite
     for quantum simulation of materials; please cite
         "P. Giannozzi et al., J. Phys.:Condens. Matter 21 395502 (2009);
         "P. Giannozzi et al., J. Phys.:Condens. Matter 29 465901 (2017);
          URL http://www.quantum-espresso.org", 
     in publications or presentations arising from this work. More details at
     http://www.quantum-espresso.org/quote

     Parallel version (MPI), running on     1 processors

     MPI processes distributed on     1 nodes
     Fft bands division:     nmany     =       1
     Waiting for input...
     Reading input from standard input
Warning: card &CELL ignored
Warning: card   CELL_DYNAMICS='BFGS', ignored
Warning: card   CELL_DOFREE='ALL', ignored
Warning: card / ignored

     Current dimensions of program PWSCF are:
     Max number of different atomic species (ntypx) = 10
     Max number of k-points (npk) =  40000
     Max angular momentum in pseudopotentials (lmaxx) =  3

     Subspace diagonalization in iterative solution of the eigenvalue problem:
     a serial algorithm will be used

 
     G-vector sticks info
     --------------------
     sticks:   dense  smooth     PW     G-vecs:    dense   smooth      PW
     Sum        1099     559    169                23973     8441    1471
 


     bravais-lattice index     =            2
     lattice parameter (alat)  =      11.5273  a.u.
     unit-cell volume          =     382.9359 (a.u.)^3
     number of atoms/cell      =            2
     number of atomic types    =            1
     number of electrons       =         8.00
     number of Kohn-Sham states=            8
     kinetic-energy cutoff     =      30.0000  Ry
     charge density cutoff     =     240.0000  Ry
     convergence threshold     =      1.0E-06
     mixing beta               =       0.7000
     number of iterations used =            8  plain     mixing
     Exchange-correlation= PBE
                           (   1   4   3   4   0   0   0)
     nstep                     =            1


     celldm(1)=  11.527329  celldm(2)=   0.000000  celldm(3)=   0.000000
     celldm(4)=   0.000000  celldm(5)=   0.000000  celldm(6)=   0.000000

     crystal axes: (cart. coord. in units of alat)
               a(1) = (  -0.500000   0.000000   0.500000 )  
               a(2) = (   0.000000   0.500000   0.500000 )  
               a(3) = (  -0.500000   0.500000   0.000000 )  

     reciprocal axes: (cart. coord. in units 2 pi/alat)
               b(1) = ( -1.000000 -1.000000  1.000000 )  
               b(2) = (  1.000000  1.000000  1.000000 )  
               b(3) = ( -1.000000  1.000000 -1.000000 )  


     PseudoPot. # 1 for Si read from file:
     /home/jesus/Documentos/Nanociencia_DFT/pseudopotenciales/Si.pbe-n-rrkjus_psl.1.0.0.UPF
     MD5 check sum: fa25574f73a70a4139f2adfbefec430c
     Pseudo is Ultrasoft + core correction, Zval =  4.0
     Generated using "atomic" code by A. Dal Corso v.6.3
     Using radial grid of 1141 points,  6 beta functions with: 
                l(1) =   0
                l(2) =   0
                l(3) =   1
                l(4) =   1
                l(5) =   2
                l(6) =   2
     Q(r) pseudized with 0 coefficients 


     atomic species   valence    mass     pseudopotential
        Si             4.00    28.08550     Si( 1.00)

     48 Sym. Ops., with inversion, found (24 have fractional translation)



   Cartesian axes

     site n.     atom                  positions (alat units)
         1           Si  tau(   1) = (   0.0000000   0.0000000   0.0000000  )
         2           Si  tau(   2) = (  -0.2500000   0.2500000   0.2500000  )

     number of k points=    29  Methfessel-Paxton smearing, width (Ry)=  0.0100
                       cart. coord. in units 2pi/alat
        k(    1) = (   0.0000000   0.0000000   0.0000000), wk =   0.0039062
        k(    2) = (  -0.1250000   0.1250000  -0.1250000), wk =   0.0312500
        k(    3) = (  -0.2500000   0.2500000  -0.2500000), wk =   0.0312500
        k(    4) = (  -0.3750000   0.3750000  -0.3750000), wk =   0.0312500
        k(    5) = (   0.5000000  -0.5000000   0.5000000), wk =   0.0156250
        k(    6) = (   0.0000000   0.2500000   0.0000000), wk =   0.0234375
        k(    7) = (  -0.1250000   0.3750000  -0.1250000), wk =   0.0937500
        k(    8) = (  -0.2500000   0.5000000  -0.2500000), wk =   0.0937500
        k(    9) = (   0.6250000  -0.3750000   0.6250000), wk =   0.0937500
        k(   10) = (   0.5000000  -0.2500000   0.5000000), wk =   0.0937500
        k(   11) = (   0.3750000  -0.1250000   0.3750000), wk =   0.0937500
        k(   12) = (   0.2500000   0.0000000   0.2500000), wk =   0.0468750
        k(   13) = (   0.0000000   0.5000000   0.0000000), wk =   0.0234375
        k(   14) = (  -0.1250000   0.6250000  -0.1250000), wk =   0.0937500
        k(   15) = (   0.7500000  -0.2500000   0.7500000), wk =   0.0937500
        k(   16) = (   0.6250000  -0.1250000   0.6250000), wk =   0.0937500
        k(   17) = (   0.5000000   0.0000000   0.5000000), wk =   0.0468750
        k(   18) = (   0.0000000   0.7500000   0.0000000), wk =   0.0234375
        k(   19) = (   0.8750000  -0.1250000   0.8750000), wk =   0.0937500
        k(   20) = (   0.7500000   0.0000000   0.7500000), wk =   0.0468750
        k(   21) = (   0.0000000  -1.0000000   0.0000000), wk =   0.0117188
        k(   22) = (  -0.2500000   0.5000000   0.0000000), wk =   0.0937500
        k(   23) = (   0.6250000  -0.3750000   0.8750000), wk =   0.1875000
        k(   24) = (   0.5000000  -0.2500000   0.7500000), wk =   0.0937500
        k(   25) = (   0.7500000  -0.2500000   1.0000000), wk =   0.0937500
        k(   26) = (   0.6250000  -0.1250000   0.8750000), wk =   0.1875000
        k(   27) = (   0.5000000   0.0000000   0.7500000), wk =   0.0937500
        k(   28) = (  -0.2500000  -1.0000000   0.0000000), wk =   0.0468750
        k(   29) = (  -0.5000000  -1.0000000   0.0000000), wk =   0.0234375

     Dense  grid:    23973 G-vectors     FFT dimensions: (  48,  48,  48)

     Smooth grid:     8441 G-vectors     FFT dimensions: (  32,  32,  32)

     Estimated max dynamical RAM per process >      92.86 MB

     Initial potential from superposition of free atoms

     starting charge    7.99888, renormalised to    8.00000
     Starting wfcs are    8 randomized atomic wfcs

     total cpu time spent up to now is        1.2 secs

     Self-consistent Calculation

     iteration #  1     ecut=    30.00 Ry     beta= 0.70
     Davidson diagonalization with overlap
     ethr =  1.00E-02,  avg # of iterations =  3.0

     Threshold (ethr) on eigenvalues was too large:
     Diagonalizing with lowered threshold

     Davidson diagonalization with overlap
     ethr =  3.56E-04,  avg # of iterations =  2.2

     total cpu time spent up to now is        3.1 secs

     total energy              =     -22.77110569 Ry
     estimated scf accuracy    <       0.03068878 Ry

     iteration #  2     ecut=    30.00 Ry     beta= 0.70
     Davidson diagonalization with overlap
     ethr =  3.84E-04,  avg # of iterations =  1.0

     total cpu time spent up to now is        4.1 secs

     total energy              =     -22.77149843 Ry
     estimated scf accuracy    <       0.00219554 Ry

     iteration #  3     ecut=    30.00 Ry     beta= 0.70
     Davidson diagonalization with overlap
     ethr =  2.74E-05,  avg # of iterations =  3.9

     total cpu time spent up to now is        5.1 secs

     total energy              =     -22.77157568 Ry
     estimated scf accuracy    <       0.00001002 Ry

     iteration #  4     ecut=    30.00 Ry     beta= 0.70
     Davidson diagonalization with overlap
     ethr =  1.25E-07,  avg # of iterations =  4.1

     total cpu time spent up to now is        6.2 secs

     End of self-consistent calculation

          k = 0.0000 0.0000 0.0000 (  1067 PWs)   bands (ev):

    -6.8194   2.9607   3.0909   3.0909   3.0909   5.4416   5.4416   5.4416

          k =-0.1250 0.1250-0.1250 (  1046 PWs)   bands (ev):

    -6.6710   1.2471   2.8906   2.8906   4.0273   5.7406   5.7406   6.0161

          k =-0.2500 0.2500-0.2500 (  1065 PWs)   bands (ev):

    -6.2440  -0.5101   2.5383   2.5383   3.8723   6.2162   6.2163   7.6578

          k =-0.3750 0.3750-0.3750 (  1059 PWs)   bands (ev):

    -5.6319  -1.9643   2.2793   2.2793   3.5978   6.3854   6.3854   9.4292

          k = 0.5000-0.5000 0.5000 (  1068 PWs)   bands (ev):

    -5.2412  -2.6417   2.1883   2.1883   3.4919   6.3845   6.3845  10.0793

          k = 0.0000 0.2500 0.0000 (  1046 PWs)   bands (ev):

    -6.6206   1.1519   2.5557   2.5557   4.8106   5.0506   6.2233   6.2233

          k =-0.1250 0.3750-0.1250 (  1055 PWs)   bands (ev):

    -6.2821  -0.1680   2.1250   2.1805   4.8744   5.4041   6.8334   7.1678

          k =-0.2500 0.5000-0.2500 (  1061 PWs)   bands (ev):

    -5.7109  -1.6065   1.6430   1.9632   4.6061   6.0399   7.0412   7.9792

          k = 0.6250-0.3750 0.6250 (  1068 PWs)   bands (ev):

    -5.1593  -2.5842   1.3142   1.9572   4.4309   6.2973   6.9015   9.2833

          k = 0.5000-0.2500 0.5000 (  1061 PWs)   bands (ev):

    -5.3083  -2.3455   1.2224   2.1550   4.4382   6.4737   6.6939   9.3286

          k = 0.3750-0.1250 0.3750 (  1061 PWs)   bands (ev):

    -5.9239  -1.1485   1.4188   2.5021   4.5938   6.3660   6.5040   7.9111

          k = 0.2500 0.0000 0.2500 (  1049 PWs)   bands (ev):

    -6.4278   0.2512   2.0015   2.8500   4.5889   5.8696   5.9486   6.9960

          k = 0.0000 0.5000 0.0000 (  1062 PWs)   bands (ev):

    -6.0327  -0.6411   1.7740   1.7740   4.4311   5.5704   7.7242   7.7243

          k =-0.1250 0.6250-0.1250 (  1056 PWs)   bands (ev):

    -5.5254  -1.6607   1.2156   1.5318   4.5918   5.6286   7.8617   8.2448

          k = 0.7500-0.2500 0.7500 (  1064 PWs)   bands (ev):

    -4.9017  -2.6273   0.5937   1.5198   4.6811   6.7216   7.7575   8.1590

          k = 0.6250-0.1250 0.6250 (  1068 PWs)   bands (ev):

    -4.7880  -2.7767   0.2949   1.7369   4.7998   7.3409   7.7830   8.7741

          k = 0.5000 0.0000 0.5000 (  1065 PWs)   bands (ev):

    -5.3688  -1.9772   0.5120   2.1231   4.9705   7.1209   7.3122   7.7408

          k = 0.0000 0.7500 0.0000 (  1054 PWs)   bands (ev):

    -5.0831  -2.3158   1.2406   1.2406   4.1054   4.8719   9.3756   9.3756

          k = 0.8750-0.1250 0.8750 (  1062 PWs)   bands (ev):

    -4.4511  -3.1134   0.7274   1.1791   4.3483   5.1243   9.4178   9.6525

          k = 0.7500 0.0000 0.7500 (  1063 PWs)   bands (ev):

    -4.2090  -3.3561   0.1863   1.3599   4.5312   6.7127   9.0205   9.0223

          k = 0.0000-1.0000 0.0000 (  1034 PWs)   bands (ev):

    -3.8210  -3.8210   1.0560   1.0560   4.2476   4.2476  10.4612  10.4613

          k =-0.2500 0.5000 0.0000 (  1060 PWs)   bands (ev):

    -5.8612  -1.1018   1.2273   2.0529   5.3655   5.4654   7.2441   7.5592

          k = 0.6250-0.3750 0.8750 (  1065 PWs)   bands (ev):

    -5.2482  -2.1862   0.7204   1.7356   5.2891   6.1681   7.4217   8.1083

          k = 0.5000-0.2500 0.7500 (  1072 PWs)   bands (ev):

    -4.8388  -2.7841   0.5743   1.5923   5.2230   6.2716   7.8422   8.9157

          k = 0.7500-0.2500 1.0000 (  1067 PWs)   bands (ev):

    -4.9586  -2.4719   0.7673   1.1947   5.0409   5.5486   7.7801   9.2990

          k = 0.6250-0.1250 0.8750 (  1070 PWs)   bands (ev):

    -4.3784  -3.1589   0.3200   1.0635   5.3379   6.7647   7.5021   8.9042

          k = 0.5000 0.0000 0.7500 (  1069 PWs)   bands (ev):

    -4.6285  -2.8775   0.2135   1.3116   5.5534   6.9639   7.4825   8.6735

          k =-0.2500-1.0000 0.0000 (  1062 PWs)   bands (ev):

    -3.7927  -3.7927   0.7441   0.7441   5.1083   5.1083   9.2667   9.2668

          k =-0.5000-1.0000 0.0000 (  1048 PWs)   bands (ev):

    -3.7634  -3.7634   0.4938   0.4938   6.7645   6.7645   7.2935   7.2935

     the Fermi energy is     3.0763 ev

!    total energy              =     -22.77158355 Ry
     estimated scf accuracy    <       0.00000011 Ry
     smearing contrib. (-TS)   =       0.00004142 Ry
     internal energy E=F+TS    =     -22.77162497 Ry

     The total energy is F=E-TS. E is the sum of the following terms:
     one-electron contribution =       2.68581499 Ry
     hartree contribution      =       1.43498830 Ry
     xc contribution           =     -11.93861440 Ry
     ewald contribution        =     -14.95381385 Ry

     convergence has been achieved in   4 iterations

     Forces acting on atoms (cartesian axes, Ry/au):

     atom    1 type  1   force =    -0.00000000   -0.00000000    0.00000000
     atom    2 type  1   force =    -0.00000000   -0.00000000    0.00000000

     Total force =     0.000000     Total SCF correction =     0.000000

     BFGS Geometry Optimization

     bfgs converged in   1 scf cycles and   0 bfgs steps
     (criteria: energy <  1.0E-04 Ry, force <  1.0E-03 Ry/Bohr)

     End of BFGS Geometry Optimization

     Final energy   =     -22.7715835529 Ry
Begin final coordinates

ATOMIC_POSITIONS (crystal)
Si            0.0000000000        0.0000000000        0.0000000000
Si            0.2500000000        0.2500000000        0.2500000000
End final coordinates



     Writing output data file /home/jesus/Documentos/Nanociencia_DFT/test.save/
 
     init_run     :      0.50s CPU      0.58s WALL (       1 calls)
     electrons    :      4.64s CPU      4.99s WALL (       1 calls)
     forces       :      0.16s CPU      0.21s WALL (       1 calls)

     Called by init_run:
     wfcinit      :      0.16s CPU      0.16s WALL (       1 calls)
     potinit      :      0.04s CPU      0.07s WALL (       1 calls)
     hinit0       :      0.23s CPU      0.24s WALL (       1 calls)

     Called by electrons:
     c_bands      :      3.20s CPU      3.24s WALL (       5 calls)
     sum_band     :      0.90s CPU      1.05s WALL (       5 calls)
     v_of_rho     :      0.26s CPU      0.30s WALL (       5 calls)
     newd         :      0.32s CPU      0.52s WALL (       5 calls)
     mix_rho      :      0.02s CPU      0.02s WALL (       5 calls)

     Called by c_bands:
     init_us_2    :      0.14s CPU      0.14s WALL (     348 calls)
     cegterg      :      2.60s CPU      2.63s WALL (     145 calls)

     Called by *egterg:
     cdiaghg      :      0.08s CPU      0.08s WALL (     531 calls)
     h_psi        :      2.36s CPU      2.39s WALL (     589 calls)
     s_psi        :      0.08s CPU      0.08s WALL (     589 calls)
     g_psi        :      0.01s CPU      0.01s WALL (     415 calls)

     Called by h_psi:
     h_psi:calbec :      0.11s CPU      0.11s WALL (     589 calls)
     vloc_psi     :      2.15s CPU      2.18s WALL (     589 calls)
     add_vuspsi   :      0.09s CPU      0.09s WALL (     589 calls)

     General routines
     calbec       :      0.15s CPU      0.15s WALL (     850 calls)
     fft          :      0.10s CPU      0.10s WALL (      75 calls)
     ffts         :      0.00s CPU      0.00s WALL (      10 calls)
     fftw         :      2.04s CPU      2.07s WALL (    7860 calls)
     interpolate  :      0.01s CPU      0.01s WALL (       5 calls)
 
     Parallel routines
 
     PWSCF        :      5.94s CPU      6.48s WALL

 
   This run was terminated on:  22:34:31  15Mar2021            

=------------------------------------------------------------------------------=
   JOB DONE.
=------------------------------------------------------------------------------=
