
     Program PWSCF v.6.6 starts on  2Apr2021 at 16:52:16 

     This program is part of the open-source Quantum ESPRESSO suite
     for quantum simulation of materials; please cite
         "P. Giannozzi et al., J. Phys.:Condens. Matter 21 395502 (2009);
         "P. Giannozzi et al., J. Phys.:Condens. Matter 29 465901 (2017);
          URL http://www.quantum-espresso.org", 
     in publications or presentations arising from this work. More details at
     http://www.quantum-espresso.org/quote

     Parallel version (MPI), running on     1 processors

     MPI processes distributed on     1 nodes
     Fft bands division:     nmany     =       1
     Waiting for input...
     Reading input from standard input
Warning: card &CELL ignored
Warning: card   CELL_DYNAMICS='BFGS', ignored
Warning: card   CELL_DOFREE='ALL', ignored
Warning: card / ignored

     Current dimensions of program PWSCF are:
     Max number of different atomic species (ntypx) = 10
     Max number of k-points (npk) =  40000
     Max angular momentum in pseudopotentials (lmaxx) =  3

     Subspace diagonalization in iterative solution of the eigenvalue problem:
     a serial algorithm will be used

 
     G-vector sticks info
     --------------------
     sticks:   dense  smooth     PW     G-vecs:    dense   smooth      PW
     Sum         859     433    151                16889     5985    1139
 


     bravais-lattice index     =            2
     lattice parameter (alat)  =      10.2801  a.u.
     unit-cell volume          =     271.6022 (a.u.)^3
     number of atoms/cell      =            2
     number of atomic types    =            1
     number of electrons       =         8.00
     number of Kohn-Sham states=            8
     kinetic-energy cutoff     =      30.0000  Ry
     charge density cutoff     =     240.0000  Ry
     convergence threshold     =      1.0E-06
     mixing beta               =       0.7000
     number of iterations used =            8  plain     mixing
     Exchange-correlation= PBE
                           (   1   4   3   4   0   0   0)
     nstep                     =            1


     celldm(1)=  10.280110  celldm(2)=   0.000000  celldm(3)=   0.000000
     celldm(4)=   0.000000  celldm(5)=   0.000000  celldm(6)=   0.000000

     crystal axes: (cart. coord. in units of alat)
               a(1) = (  -0.500000   0.000000   0.500000 )  
               a(2) = (   0.000000   0.500000   0.500000 )  
               a(3) = (  -0.500000   0.500000   0.000000 )  

     reciprocal axes: (cart. coord. in units 2 pi/alat)
               b(1) = ( -1.000000 -1.000000  1.000000 )  
               b(2) = (  1.000000  1.000000  1.000000 )  
               b(3) = ( -1.000000  1.000000 -1.000000 )  


     PseudoPot. # 1 for Si read from file:
     /home/jesus/Documentos/Nanociencia_DFT/pseudopotenciales/Si.pbe-n-rrkjus_psl.1.0.0.UPF
     MD5 check sum: fa25574f73a70a4139f2adfbefec430c
     Pseudo is Ultrasoft + core correction, Zval =  4.0
     Generated using "atomic" code by A. Dal Corso v.6.3
     Using radial grid of 1141 points,  6 beta functions with: 
                l(1) =   0
                l(2) =   0
                l(3) =   1
                l(4) =   1
                l(5) =   2
                l(6) =   2
     Q(r) pseudized with 0 coefficients 


     atomic species   valence    mass     pseudopotential
        Si             4.00    28.08550     Si( 1.00)

     48 Sym. Ops., with inversion, found (24 have fractional translation)



   Cartesian axes

     site n.     atom                  positions (alat units)
         1           Si  tau(   1) = (   0.0000000   0.0000000   0.0000000  )
         2           Si  tau(   2) = (  -0.2500000   0.2500000   0.2500000  )

     number of k points=    29  Methfessel-Paxton smearing, width (Ry)=  0.0100
                       cart. coord. in units 2pi/alat
        k(    1) = (   0.0000000   0.0000000   0.0000000), wk =   0.0039062
        k(    2) = (  -0.1250000   0.1250000  -0.1250000), wk =   0.0312500
        k(    3) = (  -0.2500000   0.2500000  -0.2500000), wk =   0.0312500
        k(    4) = (  -0.3750000   0.3750000  -0.3750000), wk =   0.0312500
        k(    5) = (   0.5000000  -0.5000000   0.5000000), wk =   0.0156250
        k(    6) = (   0.0000000   0.2500000   0.0000000), wk =   0.0234375
        k(    7) = (  -0.1250000   0.3750000  -0.1250000), wk =   0.0937500
        k(    8) = (  -0.2500000   0.5000000  -0.2500000), wk =   0.0937500
        k(    9) = (   0.6250000  -0.3750000   0.6250000), wk =   0.0937500
        k(   10) = (   0.5000000  -0.2500000   0.5000000), wk =   0.0937500
        k(   11) = (   0.3750000  -0.1250000   0.3750000), wk =   0.0937500
        k(   12) = (   0.2500000   0.0000000   0.2500000), wk =   0.0468750
        k(   13) = (   0.0000000   0.5000000   0.0000000), wk =   0.0234375
        k(   14) = (  -0.1250000   0.6250000  -0.1250000), wk =   0.0937500
        k(   15) = (   0.7500000  -0.2500000   0.7500000), wk =   0.0937500
        k(   16) = (   0.6250000  -0.1250000   0.6250000), wk =   0.0937500
        k(   17) = (   0.5000000   0.0000000   0.5000000), wk =   0.0468750
        k(   18) = (   0.0000000   0.7500000   0.0000000), wk =   0.0234375
        k(   19) = (   0.8750000  -0.1250000   0.8750000), wk =   0.0937500
        k(   20) = (   0.7500000   0.0000000   0.7500000), wk =   0.0468750
        k(   21) = (   0.0000000  -1.0000000   0.0000000), wk =   0.0117188
        k(   22) = (  -0.2500000   0.5000000   0.0000000), wk =   0.0937500
        k(   23) = (   0.6250000  -0.3750000   0.8750000), wk =   0.1875000
        k(   24) = (   0.5000000  -0.2500000   0.7500000), wk =   0.0937500
        k(   25) = (   0.7500000  -0.2500000   1.0000000), wk =   0.0937500
        k(   26) = (   0.6250000  -0.1250000   0.8750000), wk =   0.1875000
        k(   27) = (   0.5000000   0.0000000   0.7500000), wk =   0.0937500
        k(   28) = (  -0.2500000  -1.0000000   0.0000000), wk =   0.0468750
        k(   29) = (  -0.5000000  -1.0000000   0.0000000), wk =   0.0234375

     Dense  grid:    16889 G-vectors     FFT dimensions: (  36,  36,  36)

     Smooth grid:     5985 G-vectors     FFT dimensions: (  32,  32,  32)

     Estimated max dynamical RAM per process >      63.66 MB

     Initial potential from superposition of free atoms

     starting charge    7.99888, renormalised to    8.00000
     Starting wfcs are    8 randomized atomic wfcs

     total cpu time spent up to now is        1.3 secs

     Self-consistent Calculation

     iteration #  1     ecut=    30.00 Ry     beta= 0.70
     Davidson diagonalization with overlap
     ethr =  1.00E-02,  avg # of iterations =  3.8

     Threshold (ethr) on eigenvalues was too large:
     Diagonalizing with lowered threshold

     Davidson diagonalization with overlap
     ethr =  6.42E-04,  avg # of iterations =  2.0

     total cpu time spent up to now is        2.6 secs

     total energy              =     -22.83701923 Ry
     estimated scf accuracy    <       0.05528437 Ry

     iteration #  2     ecut=    30.00 Ry     beta= 0.70
     Davidson diagonalization with overlap
     ethr =  6.91E-04,  avg # of iterations =  1.0

     total cpu time spent up to now is        3.2 secs

     total energy              =     -22.83932411 Ry
     estimated scf accuracy    <       0.00220824 Ry

     iteration #  3     ecut=    30.00 Ry     beta= 0.70
     Davidson diagonalization with overlap
     ethr =  2.76E-05,  avg # of iterations =  4.9

     total cpu time spent up to now is        3.9 secs

     total energy              =     -22.83947035 Ry
     estimated scf accuracy    <       0.00004779 Ry

     iteration #  4     ecut=    30.00 Ry     beta= 0.70
     Davidson diagonalization with overlap
     ethr =  5.97E-07,  avg # of iterations =  4.1

     total cpu time spent up to now is        4.6 secs

     End of self-consistent calculation

          k = 0.0000 0.0000 0.0000 (   749 PWs)   bands (ev):

    -5.7765   6.1506   6.1506   6.1506   8.7110   8.7110   8.7110   9.4512

          k =-0.1250 0.1250-0.1250 (   746 PWs)   bands (ev):

    -5.5734   4.5524   5.8628   5.8628   8.6365   9.1337   9.1338  10.8122

          k =-0.2500 0.2500-0.2500 (   757 PWs)   bands (ev):

    -4.9807   2.2312   5.3934   5.3934   8.1604   9.6527   9.6528  13.0243

          k =-0.3750 0.3750-0.3750 (   763 PWs)   bands (ev):

    -4.0918   0.2195   5.0669   5.0669   7.7968   9.6033   9.6034  14.0256

          k = 0.5000-0.5000 0.5000 (   754 PWs)   bands (ev):

    -3.4585  -0.7970   4.9553   4.9553   7.6688   9.4944   9.4944  13.8764

          k = 0.0000 0.2500 0.0000 (   761 PWs)   bands (ev):

    -5.5049   4.8109   5.3478   5.3478   8.1626   9.8462   9.8462  10.4996

          k =-0.1250 0.3750-0.1250 (   757 PWs)   bands (ev):

    -5.0384   2.9289   4.8379   4.9110   8.2980   9.8363  10.6092  10.9028

          k =-0.2500 0.5000-0.2500 (   746 PWs)   bands (ev):

    -4.2277   0.8773   4.3211   4.5703   8.3936   9.7798  10.6113  11.6151

          k = 0.6250-0.3750 0.6250 (   755 PWs)   bands (ev):

    -3.3719  -0.5782   3.8773   4.5941   8.3371   9.6598  10.2515  13.5069

          k = 0.5000-0.2500 0.5000 (   756 PWs)   bands (ev):

    -3.6146  -0.2099   3.6971   4.8890   8.4987   9.7718  10.0197  14.0466

          k = 0.3750-0.1250 0.3750 (   757 PWs)   bands (ev):

    -4.5324   1.5334   3.8489   5.3785   8.8529   9.8239  10.0041  12.4284

          k = 0.2500 0.0000 0.2500 (   759 PWs)   bands (ev):

    -5.2387   3.4670   4.5303   5.8580   9.1727   9.2701   9.5043  11.6691

          k = 0.0000 0.5000 0.0000 (   769 PWs)   bands (ev):

    -4.6996   2.6309   4.2690   4.2690   7.2860   9.2869  11.8918  11.8919

          k =-0.1250 0.6250-0.1250 (   757 PWs)   bands (ev):

    -3.9931   1.2136   3.4918   3.9519   7.5070   9.0498  12.1266  12.4062

          k = 0.7500-0.2500 0.7500 (   758 PWs)   bands (ev):

    -3.0724  -0.2203   2.6319   3.9547   7.6770  10.5981  11.8706  12.0619

          k = 0.6250-0.1250 0.6250 (   757 PWs)   bands (ev):

    -2.8698  -0.4766   2.1760   4.2715   7.9989  11.6027  11.6231  13.0928

          k = 0.5000 0.0000 0.5000 (   754 PWs)   bands (ev):

    -3.7430   0.6777   2.4164   4.8275   8.5981  10.9298  11.2751  12.2697

          k = 0.0000 0.7500 0.0000 (   753 PWs)   bands (ev):

    -3.3933   0.4108   3.5550   3.5550   6.7751   7.7014  14.1661  14.1661

          k = 0.8750-0.1250 0.8750 (   757 PWs)   bands (ev):

    -2.5005  -0.6697   2.7318   3.4790   7.0552   8.1241  14.3952  14.4737

          k = 0.7500 0.0000 0.7500 (   746 PWs)   bands (ev):

    -2.0656  -1.0635   1.8715   3.7354   7.3633  10.2779  13.5973  14.3408

          k = 0.0000-1.0000 0.0000 (   740 PWs)   bands (ev):

    -1.6516  -1.6516   3.3103   3.3103   6.8720   6.8720  16.2092  16.2093

          k =-0.2500 0.5000 0.0000 (   755 PWs)   bands (ev):

    -4.4535   1.8639   3.4507   4.7281   8.5976  10.0335  10.3510  11.6387

          k = 0.6250-0.3750 0.8750 (   756 PWs)   bands (ev):

    -3.5700   0.3197   2.8434   4.2298   9.0261   9.7001  11.1615  12.0750

          k = 0.5000-0.2500 0.7500 (   750 PWs)   bands (ev):

    -2.9221  -0.6192   2.7139   4.0017   9.2072   9.2890  12.0479  13.2617

          k = 0.7500-0.2500 1.0000 (   755 PWs)   bands (ev):

    -3.1960   0.1927   2.8046   3.4050   8.1009   8.8026  11.8890  14.1162

          k = 0.6250-0.1250 0.8750 (   749 PWs)   bands (ev):

    -2.3265  -0.7705   2.1107   3.2054   8.5424  10.4321  11.4124  13.5697

          k = 0.5000 0.0000 0.7500 (   747 PWs)   bands (ev):

    -2.6754  -0.4086   1.9450   3.5792   9.0198  10.6899  11.3555  13.1668

          k =-0.2500-1.0000 0.0000 (   746 PWs)   bands (ev):

    -1.5746  -1.5746   2.7508   2.7508   8.1267   8.1267  13.9749  13.9750

          k =-0.5000-1.0000 0.0000 (   744 PWs)   bands (ev):

    -1.4900  -1.4900   2.3184   2.3184  10.4245  10.4246  11.1357  11.1357

     the Fermi energy is     6.6763 ev

!    total energy              =     -22.83947867 Ry
     estimated scf accuracy    <       0.00000011 Ry
     smearing contrib. (-TS)   =       0.00001497 Ry
     internal energy E=F+TS    =     -22.83949364 Ry

     The total energy is F=E-TS. E is the sum of the following terms:
     one-electron contribution =       5.12560243 Ry
     hartree contribution      =       1.10582770 Ry
     xc contribution           =     -12.30286044 Ry
     ewald contribution        =     -16.76806333 Ry

     convergence has been achieved in   4 iterations

     Forces acting on atoms (cartesian axes, Ry/au):

     atom    1 type  1   force =     0.00000000    0.00000000   -0.00000000
     atom    2 type  1   force =    -0.00000000   -0.00000000   -0.00000000

     Total force =     0.000000     Total SCF correction =     0.000000

     BFGS Geometry Optimization

     bfgs converged in   1 scf cycles and   0 bfgs steps
     (criteria: energy <  1.0E-04 Ry, force <  1.0E-03 Ry/Bohr)

     End of BFGS Geometry Optimization

     Final energy   =     -22.8394786716 Ry
Begin final coordinates

ATOMIC_POSITIONS (crystal)
Si            0.0000000000        0.0000000000        0.0000000000
Si            0.2500000000        0.2500000000        0.2500000000
End final coordinates



     Writing output data file /home/jesus/Documentos/Nanociencia_DFT/test.save/
 
     init_run     :      0.54s CPU      0.63s WALL (       1 calls)
     electrons    :      3.02s CPU      3.24s WALL (       1 calls)
     forces       :      0.10s CPU      0.12s WALL (       1 calls)

     Called by init_run:
     wfcinit      :      0.17s CPU      0.19s WALL (       1 calls)
     potinit      :      0.03s CPU      0.04s WALL (       1 calls)
     hinit0       :      0.28s CPU      0.30s WALL (       1 calls)

     Called by electrons:
     c_bands      :      2.19s CPU      2.24s WALL (       5 calls)
     sum_band     :      0.58s CPU      0.68s WALL (       5 calls)
     v_of_rho     :      0.11s CPU      0.11s WALL (       5 calls)
     newd         :      0.19s CPU      0.31s WALL (       5 calls)
     mix_rho      :      0.01s CPU      0.01s WALL (       5 calls)

     Called by c_bands:
     init_us_2    :      0.08s CPU      0.08s WALL (     348 calls)
     cegterg      :      1.85s CPU      1.89s WALL (     145 calls)

     Called by *egterg:
     cdiaghg      :      0.07s CPU      0.07s WALL (     576 calls)
     h_psi        :      1.77s CPU      1.82s WALL (     634 calls)
     s_psi        :      0.04s CPU      0.04s WALL (     634 calls)
     g_psi        :      0.01s CPU      0.01s WALL (     460 calls)

     Called by h_psi:
     h_psi:calbec :      0.06s CPU      0.06s WALL (     634 calls)
     vloc_psi     :      1.66s CPU      1.71s WALL (     634 calls)
     add_vuspsi   :      0.05s CPU      0.05s WALL (     634 calls)

     General routines
     calbec       :      0.08s CPU      0.08s WALL (     895 calls)
     fft          :      0.04s CPU      0.06s WALL (      75 calls)
     ffts         :      0.00s CPU      0.00s WALL (      10 calls)
     fftw         :      1.66s CPU      1.70s WALL (    7936 calls)
     interpolate  :      0.01s CPU      0.01s WALL (       5 calls)
 
     Parallel routines
 
     PWSCF        :      4.35s CPU      4.73s WALL

 
   This run was terminated on:  16:52:21   2Apr2021            

=------------------------------------------------------------------------------=
   JOB DONE.
=------------------------------------------------------------------------------=
