
     Program PWSCF v.6.6 starts on 15Mar2021 at 22:33:16 

     This program is part of the open-source Quantum ESPRESSO suite
     for quantum simulation of materials; please cite
         "P. Giannozzi et al., J. Phys.:Condens. Matter 21 395502 (2009);
         "P. Giannozzi et al., J. Phys.:Condens. Matter 29 465901 (2017);
          URL http://www.quantum-espresso.org", 
     in publications or presentations arising from this work. More details at
     http://www.quantum-espresso.org/quote

     Parallel version (MPI), running on     1 processors

     MPI processes distributed on     1 nodes
     Fft bands division:     nmany     =       1
     Waiting for input...
     Reading input from standard input
Warning: card &CELL ignored
Warning: card   CELL_DYNAMICS='BFGS', ignored
Warning: card   CELL_DOFREE='ALL', ignored
Warning: card / ignored

     Current dimensions of program PWSCF are:
     Max number of different atomic species (ntypx) = 10
     Max number of k-points (npk) =  40000
     Max angular momentum in pseudopotentials (lmaxx) =  3

     Subspace diagonalization in iterative solution of the eigenvalue problem:
     a serial algorithm will be used

 
     G-vector sticks info
     --------------------
     sticks:   dense  smooth     PW     G-vecs:    dense   smooth      PW
     Sum         649     313    109                10969     3839     749
 


     bravais-lattice index     =            2
     lattice parameter (alat)  =       8.8817  a.u.
     unit-cell volume          =     175.1581 (a.u.)^3
     number of atoms/cell      =            2
     number of atomic types    =            1
     number of electrons       =         8.00
     number of Kohn-Sham states=            8
     kinetic-energy cutoff     =      30.0000  Ry
     charge density cutoff     =     240.0000  Ry
     convergence threshold     =      1.0E-06
     mixing beta               =       0.7000
     number of iterations used =            8  plain     mixing
     Exchange-correlation= PBE
                           (   1   4   3   4   0   0   0)
     nstep                     =            1


     celldm(1)=   8.881713  celldm(2)=   0.000000  celldm(3)=   0.000000
     celldm(4)=   0.000000  celldm(5)=   0.000000  celldm(6)=   0.000000

     crystal axes: (cart. coord. in units of alat)
               a(1) = (  -0.500000   0.000000   0.500000 )  
               a(2) = (   0.000000   0.500000   0.500000 )  
               a(3) = (  -0.500000   0.500000   0.000000 )  

     reciprocal axes: (cart. coord. in units 2 pi/alat)
               b(1) = ( -1.000000 -1.000000  1.000000 )  
               b(2) = (  1.000000  1.000000  1.000000 )  
               b(3) = ( -1.000000  1.000000 -1.000000 )  


     PseudoPot. # 1 for Si read from file:
     /home/jesus/Documentos/Nanociencia_DFT/pseudopotenciales/Si.pbe-n-rrkjus_psl.1.0.0.UPF
     MD5 check sum: fa25574f73a70a4139f2adfbefec430c
     Pseudo is Ultrasoft + core correction, Zval =  4.0
     Generated using "atomic" code by A. Dal Corso v.6.3
     Using radial grid of 1141 points,  6 beta functions with: 
                l(1) =   0
                l(2) =   0
                l(3) =   1
                l(4) =   1
                l(5) =   2
                l(6) =   2
     Q(r) pseudized with 0 coefficients 


     atomic species   valence    mass     pseudopotential
        Si             4.00    28.08550     Si( 1.00)

     48 Sym. Ops., with inversion, found (24 have fractional translation)



   Cartesian axes

     site n.     atom                  positions (alat units)
         1           Si  tau(   1) = (   0.0000000   0.0000000   0.0000000  )
         2           Si  tau(   2) = (  -0.2500000   0.2500000   0.2500000  )

     number of k points=    29  Methfessel-Paxton smearing, width (Ry)=  0.0100
                       cart. coord. in units 2pi/alat
        k(    1) = (   0.0000000   0.0000000   0.0000000), wk =   0.0039062
        k(    2) = (  -0.1250000   0.1250000  -0.1250000), wk =   0.0312500
        k(    3) = (  -0.2500000   0.2500000  -0.2500000), wk =   0.0312500
        k(    4) = (  -0.3750000   0.3750000  -0.3750000), wk =   0.0312500
        k(    5) = (   0.5000000  -0.5000000   0.5000000), wk =   0.0156250
        k(    6) = (   0.0000000   0.2500000   0.0000000), wk =   0.0234375
        k(    7) = (  -0.1250000   0.3750000  -0.1250000), wk =   0.0937500
        k(    8) = (  -0.2500000   0.5000000  -0.2500000), wk =   0.0937500
        k(    9) = (   0.6250000  -0.3750000   0.6250000), wk =   0.0937500
        k(   10) = (   0.5000000  -0.2500000   0.5000000), wk =   0.0937500
        k(   11) = (   0.3750000  -0.1250000   0.3750000), wk =   0.0937500
        k(   12) = (   0.2500000   0.0000000   0.2500000), wk =   0.0468750
        k(   13) = (   0.0000000   0.5000000   0.0000000), wk =   0.0234375
        k(   14) = (  -0.1250000   0.6250000  -0.1250000), wk =   0.0937500
        k(   15) = (   0.7500000  -0.2500000   0.7500000), wk =   0.0937500
        k(   16) = (   0.6250000  -0.1250000   0.6250000), wk =   0.0937500
        k(   17) = (   0.5000000   0.0000000   0.5000000), wk =   0.0468750
        k(   18) = (   0.0000000   0.7500000   0.0000000), wk =   0.0234375
        k(   19) = (   0.8750000  -0.1250000   0.8750000), wk =   0.0937500
        k(   20) = (   0.7500000   0.0000000   0.7500000), wk =   0.0468750
        k(   21) = (   0.0000000  -1.0000000   0.0000000), wk =   0.0117188
        k(   22) = (  -0.2500000   0.5000000   0.0000000), wk =   0.0937500
        k(   23) = (   0.6250000  -0.3750000   0.8750000), wk =   0.1875000
        k(   24) = (   0.5000000  -0.2500000   0.7500000), wk =   0.0937500
        k(   25) = (   0.7500000  -0.2500000   1.0000000), wk =   0.0937500
        k(   26) = (   0.6250000  -0.1250000   0.8750000), wk =   0.1875000
        k(   27) = (   0.5000000   0.0000000   0.7500000), wk =   0.0937500
        k(   28) = (  -0.2500000  -1.0000000   0.0000000), wk =   0.0468750
        k(   29) = (  -0.5000000  -1.0000000   0.0000000), wk =   0.0234375

     Dense  grid:    10969 G-vectors     FFT dimensions: (  32,  32,  32)

     Smooth grid:     3839 G-vectors     FFT dimensions: (  24,  24,  24)

     Estimated max dynamical RAM per process >      41.94 MB

     Initial potential from superposition of free atoms

     starting charge    7.99888, renormalised to    8.00000
     Starting wfcs are    8 randomized atomic wfcs

     total cpu time spent up to now is        1.0 secs

     Self-consistent Calculation

     iteration #  1     ecut=    30.00 Ry     beta= 0.70
     Davidson diagonalization with overlap
     ethr =  1.00E-02,  avg # of iterations =  5.4

     total cpu time spent up to now is        1.6 secs

     total energy              =     -22.59396717 Ry
     estimated scf accuracy    <       0.09477098 Ry

     iteration #  2     ecut=    30.00 Ry     beta= 0.70
     Davidson diagonalization with overlap
     ethr =  1.18E-03,  avg # of iterations =  1.2

     total cpu time spent up to now is        1.9 secs

     total energy              =     -22.60183099 Ry
     estimated scf accuracy    <       0.00171480 Ry

     iteration #  3     ecut=    30.00 Ry     beta= 0.70
     Davidson diagonalization with overlap
     ethr =  2.14E-05,  avg # of iterations =  6.0

     total cpu time spent up to now is        2.4 secs

     total energy              =     -22.60212860 Ry
     estimated scf accuracy    <       0.00007227 Ry

     iteration #  4     ecut=    30.00 Ry     beta= 0.70
     Davidson diagonalization with overlap
     ethr =  9.03E-07,  avg # of iterations =  3.4

     total cpu time spent up to now is        2.8 secs

     End of self-consistent calculation

          k = 0.0000 0.0000 0.0000 (   531 PWs)   bands (ev):

    -3.8340  11.7233  11.7233  11.7233  14.3368  14.3368  14.3368  20.5296

          k =-0.1250 0.1250-0.1250 (   507 PWs)   bands (ev):

    -3.5432   9.6995  11.2836  11.2836  14.9617  14.9825  14.9826  18.8581

          k =-0.2500 0.2500-0.2500 (   483 PWs)   bands (ev):

    -2.6839   6.6063  10.6607  10.6607  15.0210  15.3768  15.3768  19.0410

          k =-0.3750 0.3750-0.3750 (   492 PWs)   bands (ev):

    -1.3258   3.7668  10.2748  10.2748  14.8160  14.8160  14.8564  20.2089

          k = 0.5000-0.5000 0.5000 (   476 PWs)   bands (ev):

    -0.1511   2.0833  10.1525  10.1525  14.5248  14.5248  14.7887  19.8438

          k = 0.0000 0.2500 0.0000 (   503 PWs)   bands (ev):

    -3.4460  10.4265  10.4265  10.6114  13.5536  16.0923  16.0924  17.1617

          k =-0.1250 0.3750-0.1250 (   491 PWs)   bands (ev):

    -2.7744   7.7565   9.7142  10.2169  13.7675  16.0391  16.8722  16.9851

          k =-0.2500 0.5000-0.2500 (   492 PWs)   bands (ev):

    -1.5688   4.8457   9.3965   9.4117  13.7116  16.3297  16.4534  17.9327

          k = 0.6250-0.3750 0.6250 (   481 PWs)   bands (ev):

    -0.1076   2.5618   8.7367   9.5037  13.6904  15.7082  16.2738  20.4757

          k = 0.5000-0.2500 0.5000 (   485 PWs)   bands (ev):

    -0.5653   3.1895   8.3777   9.9906  14.2216  15.3771  16.2056  20.6430

          k = 0.3750-0.1250 0.3750 (   493 PWs)   bands (ev):

    -2.0266   5.7928   8.4375  10.7361  15.1637  15.4771  16.1814  18.0874

          k = 0.2500 0.0000 0.2500 (   489 PWs)   bands (ev):

    -3.0621   8.5710   9.1541  11.4276  15.0808  15.6929  15.8063  17.5581

          k = 0.0000 0.5000 0.0000 (   480 PWs)   bands (ev):

    -2.2932   8.1306   8.8808   8.8808  12.2487  13.9923  18.9232  18.9232

          k =-0.1250 0.6250-0.1250 (   485 PWs)   bands (ev):

    -1.2630   5.9950   7.8119   8.4558  12.3564  13.9787  19.1260  19.6799

          k = 0.7500-0.2500 0.7500 (   481 PWs)   bands (ev):

     0.1910   3.6745   6.6214   8.4965  12.3933  16.2533  18.3065  19.7818

          k = 0.6250-0.1250 0.6250 (   486 PWs)   bands (ev):

     0.6104   3.1522   5.9036   8.9904  12.9227  17.7086  18.0672  20.5233

          k = 0.5000 0.0000 0.5000 (   489 PWs)   bands (ev):

    -0.8432   5.1026   6.0139   9.8512  13.9601  17.3077  17.7866  17.8421

          k = 0.0000 0.7500 0.0000 (   484 PWs)   bands (ev):

    -0.4128   5.0961   7.8931   7.8931  11.3649  12.0174  21.8677  21.8678

          k = 0.8750-0.1250 0.8750 (   479 PWs)   bands (ev):

     0.9207   3.5885   6.4208   7.7993  11.5153  13.0712  21.5828  22.5222

          k = 0.7500 0.0000 0.7500 (   478 PWs)   bands (ev):

     1.8416   2.8736   4.9195   8.1822  11.9495  15.9724  20.9894  21.8929

          k = 0.0000-1.0000 0.0000 (   468 PWs)   bands (ev):

     2.1124   2.1124   7.5580   7.5580  11.2237  11.2237  24.1996  25.9259

          k =-0.2500 0.5000 0.0000 (   488 PWs)   bands (ev):

    -1.9241   6.7334   7.5846   9.7112  14.1649  15.1786  16.8982  18.4943

          k = 0.6250-0.3750 0.8750 (   485 PWs)   bands (ev):

    -0.5787   4.3343   7.0207   8.8100  14.3577  15.5999  17.2782  19.1452

          k = 0.5000-0.2500 0.7500 (   484 PWs)   bands (ev):

     0.5978   2.6970   6.9893   8.3830  14.3437  15.3160  18.4766  20.6531

          k = 0.7500-0.2500 1.0000 (   486 PWs)   bands (ev):

    -0.0816   4.8289   6.6190   7.3990  13.3297  13.7053  18.7595  21.6267

          k = 0.6250-0.1250 0.8750 (   486 PWs)   bands (ev):

     1.3614   3.3140   5.4859   7.1069  13.6960  16.0562  18.1373  20.6321

          k = 0.5000 0.0000 0.7500 (   483 PWs)   bands (ev):

     0.8257   3.8361   5.1772   7.7267  14.3365  16.7201  17.6448  19.9085

          k =-0.2500-1.0000 0.0000 (   484 PWs)   bands (ev):

     2.3259   2.3259   6.4453   6.4453  13.1290  13.1290  21.2833  21.2834

          k =-0.5000-1.0000 0.0000 (   488 PWs)   bands (ev):

     2.6036   2.6036   5.5971   5.5971  15.8790  15.8792  17.9764  17.9764

     the Fermi energy is    11.4032 ev

!    total energy              =     -22.60213758 Ry
     estimated scf accuracy    <       0.00000027 Ry
     smearing contrib. (-TS)   =      -0.00002438 Ry
     internal energy E=F+TS    =     -22.60211319 Ry

     The total energy is F=E-TS. E is the sum of the following terms:
     one-electron contribution =       8.99224554 Ry
     hartree contribution      =       0.73059779 Ry
     xc contribution           =     -12.91681514 Ry
     ewald contribution        =     -19.40814138 Ry

     convergence has been achieved in   4 iterations

     Forces acting on atoms (cartesian axes, Ry/au):

     atom    1 type  1   force =    -0.00000000   -0.00000000    0.00000000
     atom    2 type  1   force =     0.00000000    0.00000000   -0.00000000

     Total force =     0.000000     Total SCF correction =     0.000000

     BFGS Geometry Optimization

     bfgs converged in   1 scf cycles and   0 bfgs steps
     (criteria: energy <  1.0E-04 Ry, force <  1.0E-03 Ry/Bohr)

     End of BFGS Geometry Optimization

     Final energy   =     -22.6021375753 Ry
Begin final coordinates

ATOMIC_POSITIONS (crystal)
Si            0.0000000000        0.0000000000        0.0000000000
Si            0.2500000000        0.2500000000        0.2500000000
End final coordinates



     Writing output data file /home/jesus/Documentos/Nanociencia_DFT/test.save/
 
     init_run     :      0.35s CPU      0.40s WALL (       1 calls)
     electrons    :      1.68s CPU      1.73s WALL (       1 calls)
     forces       :      0.07s CPU      0.07s WALL (       1 calls)

     Called by init_run:
     wfcinit      :      0.09s CPU      0.10s WALL (       1 calls)
     potinit      :      0.02s CPU      0.02s WALL (       1 calls)
     hinit0       :      0.23s CPU      0.23s WALL (       1 calls)

     Called by electrons:
     c_bands      :      1.25s CPU      1.27s WALL (       4 calls)
     sum_band     :      0.29s CPU      0.31s WALL (       4 calls)
     v_of_rho     :      0.07s CPU      0.07s WALL (       5 calls)
     newd         :      0.10s CPU      0.13s WALL (       5 calls)
     mix_rho      :      0.00s CPU      0.00s WALL (       4 calls)

     Called by c_bands:
     init_us_2    :      0.05s CPU      0.05s WALL (     290 calls)
     cegterg      :      1.06s CPU      1.08s WALL (     116 calls)

     Called by *egterg:
     cdiaghg      :      0.06s CPU      0.07s WALL (     579 calls)
     h_psi        :      0.97s CPU      0.99s WALL (     608 calls)
     s_psi        :      0.02s CPU      0.02s WALL (     608 calls)
     g_psi        :      0.00s CPU      0.00s WALL (     463 calls)

     Called by h_psi:
     h_psi:calbec :      0.03s CPU      0.03s WALL (     608 calls)
     vloc_psi     :      0.90s CPU      0.92s WALL (     608 calls)
     add_vuspsi   :      0.03s CPU      0.03s WALL (     608 calls)

     General routines
     calbec       :      0.05s CPU      0.05s WALL (     840 calls)
     fft          :      0.02s CPU      0.02s WALL (      74 calls)
     ffts         :      0.00s CPU      0.00s WALL (       9 calls)
     fftw         :      0.94s CPU      0.96s WALL (    6912 calls)
     interpolate  :      0.00s CPU      0.00s WALL (       5 calls)
 
     Parallel routines
 
     PWSCF        :      2.75s CPU      2.86s WALL

 
   This run was terminated on:  22:33:19  15Mar2021            

=------------------------------------------------------------------------------=
   JOB DONE.
=------------------------------------------------------------------------------=
