
     Program PWSCF v.6.6 starts on  2Apr2021 at 16:52:26 

     This program is part of the open-source Quantum ESPRESSO suite
     for quantum simulation of materials; please cite
         "P. Giannozzi et al., J. Phys.:Condens. Matter 21 395502 (2009);
         "P. Giannozzi et al., J. Phys.:Condens. Matter 29 465901 (2017);
          URL http://www.quantum-espresso.org", 
     in publications or presentations arising from this work. More details at
     http://www.quantum-espresso.org/quote

     Parallel version (MPI), running on     1 processors

     MPI processes distributed on     1 nodes
     Fft bands division:     nmany     =       1
     Waiting for input...
     Reading input from standard input
Warning: card &CELL ignored
Warning: card   CELL_DYNAMICS='BFGS', ignored
Warning: card   CELL_DOFREE='ALL', ignored
Warning: card / ignored

     Current dimensions of program PWSCF are:
     Max number of different atomic species (ntypx) = 10
     Max number of k-points (npk) =  40000
     Max angular momentum in pseudopotentials (lmaxx) =  3

     Subspace diagonalization in iterative solution of the eigenvalue problem:
     a serial algorithm will be used

 
     G-vector sticks info
     --------------------
     sticks:   dense  smooth     PW     G-vecs:    dense   smooth      PW
     Sum         871     439    151                17153     6081    1139
 


     bravais-lattice index     =            2
     lattice parameter (alat)  =      10.3179  a.u.
     unit-cell volume          =     274.6089 (a.u.)^3
     number of atoms/cell      =            2
     number of atomic types    =            1
     number of electrons       =         8.00
     number of Kohn-Sham states=            8
     kinetic-energy cutoff     =      30.0000  Ry
     charge density cutoff     =     240.0000  Ry
     convergence threshold     =      1.0E-06
     mixing beta               =       0.7000
     number of iterations used =            8  plain     mixing
     Exchange-correlation= PBE
                           (   1   4   3   4   0   0   0)
     nstep                     =            1


     celldm(1)=  10.317905  celldm(2)=   0.000000  celldm(3)=   0.000000
     celldm(4)=   0.000000  celldm(5)=   0.000000  celldm(6)=   0.000000

     crystal axes: (cart. coord. in units of alat)
               a(1) = (  -0.500000   0.000000   0.500000 )  
               a(2) = (   0.000000   0.500000   0.500000 )  
               a(3) = (  -0.500000   0.500000   0.000000 )  

     reciprocal axes: (cart. coord. in units 2 pi/alat)
               b(1) = ( -1.000000 -1.000000  1.000000 )  
               b(2) = (  1.000000  1.000000  1.000000 )  
               b(3) = ( -1.000000  1.000000 -1.000000 )  


     PseudoPot. # 1 for Si read from file:
     /home/jesus/Documentos/Nanociencia_DFT/pseudopotenciales/Si.pbe-n-rrkjus_psl.1.0.0.UPF
     MD5 check sum: fa25574f73a70a4139f2adfbefec430c
     Pseudo is Ultrasoft + core correction, Zval =  4.0
     Generated using "atomic" code by A. Dal Corso v.6.3
     Using radial grid of 1141 points,  6 beta functions with: 
                l(1) =   0
                l(2) =   0
                l(3) =   1
                l(4) =   1
                l(5) =   2
                l(6) =   2
     Q(r) pseudized with 0 coefficients 


     atomic species   valence    mass     pseudopotential
        Si             4.00    28.08550     Si( 1.00)

     48 Sym. Ops., with inversion, found (24 have fractional translation)



   Cartesian axes

     site n.     atom                  positions (alat units)
         1           Si  tau(   1) = (   0.0000000   0.0000000   0.0000000  )
         2           Si  tau(   2) = (  -0.2500000   0.2500000   0.2500000  )

     number of k points=    29  Methfessel-Paxton smearing, width (Ry)=  0.0100
                       cart. coord. in units 2pi/alat
        k(    1) = (   0.0000000   0.0000000   0.0000000), wk =   0.0039062
        k(    2) = (  -0.1250000   0.1250000  -0.1250000), wk =   0.0312500
        k(    3) = (  -0.2500000   0.2500000  -0.2500000), wk =   0.0312500
        k(    4) = (  -0.3750000   0.3750000  -0.3750000), wk =   0.0312500
        k(    5) = (   0.5000000  -0.5000000   0.5000000), wk =   0.0156250
        k(    6) = (   0.0000000   0.2500000   0.0000000), wk =   0.0234375
        k(    7) = (  -0.1250000   0.3750000  -0.1250000), wk =   0.0937500
        k(    8) = (  -0.2500000   0.5000000  -0.2500000), wk =   0.0937500
        k(    9) = (   0.6250000  -0.3750000   0.6250000), wk =   0.0937500
        k(   10) = (   0.5000000  -0.2500000   0.5000000), wk =   0.0937500
        k(   11) = (   0.3750000  -0.1250000   0.3750000), wk =   0.0937500
        k(   12) = (   0.2500000   0.0000000   0.2500000), wk =   0.0468750
        k(   13) = (   0.0000000   0.5000000   0.0000000), wk =   0.0234375
        k(   14) = (  -0.1250000   0.6250000  -0.1250000), wk =   0.0937500
        k(   15) = (   0.7500000  -0.2500000   0.7500000), wk =   0.0937500
        k(   16) = (   0.6250000  -0.1250000   0.6250000), wk =   0.0937500
        k(   17) = (   0.5000000   0.0000000   0.5000000), wk =   0.0468750
        k(   18) = (   0.0000000   0.7500000   0.0000000), wk =   0.0234375
        k(   19) = (   0.8750000  -0.1250000   0.8750000), wk =   0.0937500
        k(   20) = (   0.7500000   0.0000000   0.7500000), wk =   0.0468750
        k(   21) = (   0.0000000  -1.0000000   0.0000000), wk =   0.0117188
        k(   22) = (  -0.2500000   0.5000000   0.0000000), wk =   0.0937500
        k(   23) = (   0.6250000  -0.3750000   0.8750000), wk =   0.1875000
        k(   24) = (   0.5000000  -0.2500000   0.7500000), wk =   0.0937500
        k(   25) = (   0.7500000  -0.2500000   1.0000000), wk =   0.0937500
        k(   26) = (   0.6250000  -0.1250000   0.8750000), wk =   0.1875000
        k(   27) = (   0.5000000   0.0000000   0.7500000), wk =   0.0937500
        k(   28) = (  -0.2500000  -1.0000000   0.0000000), wk =   0.0468750
        k(   29) = (  -0.5000000  -1.0000000   0.0000000), wk =   0.0234375

     Dense  grid:    17153 G-vectors     FFT dimensions: (  36,  36,  36)

     Smooth grid:     6081 G-vectors     FFT dimensions: (  32,  32,  32)

     Estimated max dynamical RAM per process >      64.57 MB

     Initial potential from superposition of free atoms

     starting charge    7.99888, renormalised to    8.00000
     Starting wfcs are    8 randomized atomic wfcs

     total cpu time spent up to now is        1.3 secs

     Self-consistent Calculation

     iteration #  1     ecut=    30.00 Ry     beta= 0.70
     Davidson diagonalization with overlap
     ethr =  1.00E-02,  avg # of iterations =  3.7

     Threshold (ethr) on eigenvalues was too large:
     Diagonalizing with lowered threshold

     Davidson diagonalization with overlap
     ethr =  6.29E-04,  avg # of iterations =  2.1

     total cpu time spent up to now is        2.6 secs

     total energy              =     -22.83735114 Ry
     estimated scf accuracy    <       0.05420810 Ry

     iteration #  2     ecut=    30.00 Ry     beta= 0.70
     Davidson diagonalization with overlap
     ethr =  6.78E-04,  avg # of iterations =  1.0

     total cpu time spent up to now is        3.2 secs

     total energy              =     -22.83953104 Ry
     estimated scf accuracy    <       0.00222413 Ry

     iteration #  3     ecut=    30.00 Ry     beta= 0.70
     Davidson diagonalization with overlap
     ethr =  2.78E-05,  avg # of iterations =  5.1

     total cpu time spent up to now is        3.9 secs

     total energy              =     -22.83967630 Ry
     estimated scf accuracy    <       0.00004691 Ry

     iteration #  4     ecut=    30.00 Ry     beta= 0.70
     Davidson diagonalization with overlap
     ethr =  5.86E-07,  avg # of iterations =  3.0

     total cpu time spent up to now is        4.5 secs

     End of self-consistent calculation

          k = 0.0000 0.0000 0.0000 (   749 PWs)   bands (ev):

    -5.8157   6.0363   6.0363   6.0363   8.5922   8.5922   8.5922   9.2112

          k =-0.1250 0.1250-0.1250 (   764 PWs)   bands (ev):

    -5.6144   4.4412   5.7516   5.7516   8.4894   9.0103   9.0103  10.6015

          k =-0.2500 0.2500-0.2500 (   769 PWs)   bands (ev):

    -5.0276   2.1368   5.2861   5.2861   8.0079   9.5293   9.5293  12.8197

          k =-0.3750 0.3750-0.3750 (   763 PWs)   bands (ev):

    -4.1489   0.1437   4.9618   4.9618   7.6438   9.4896   9.4896  13.8861

          k = 0.5000-0.5000 0.5000 (   778 PWs)   bands (ev):

    -3.5253  -0.8602   4.8506   4.8506   7.5157   9.3846   9.3846  13.7475

          k = 0.0000 0.2500 0.0000 (   769 PWs)   bands (ev):

    -5.5466   4.6859   5.2435   5.2435   8.0493   9.7144   9.7144  10.2889

          k =-0.1250 0.3750-0.1250 (   766 PWs)   bands (ev):

    -5.0847   2.8228   4.7382   4.8048   8.1812   9.6766  10.4729  10.7815

          k =-0.2500 0.5000-0.2500 (   775 PWs)   bands (ev):

    -4.2825   0.7913   4.2190   4.4722   8.2683   9.6385  10.4842  11.4856

          k = 0.6250-0.3750 0.6250 (   760 PWs)   bands (ev):

    -3.4385  -0.6470   3.7798   4.4947   8.2055   9.5312  10.1330  13.3575

          k = 0.5000-0.2500 0.5000 (   765 PWs)   bands (ev):

    -3.6774  -0.2835   3.6030   4.7859   8.3579   9.6489   9.9023  13.8833

          k = 0.3750-0.1250 0.3750 (   767 PWs)   bands (ev):

    -4.5839   1.4407   3.7566   5.2701   8.7037   9.7004   9.8783  12.2668

          k = 0.2500 0.0000 0.2500 (   759 PWs)   bands (ev):

    -5.2830   3.3563   4.4358   5.7449   9.0177   9.1468   9.3746  11.4901

          k = 0.0000 0.5000 0.0000 (   769 PWs)   bands (ev):

    -4.7490   2.5144   4.1753   4.1753   7.1821   9.1733  11.7415  11.7415

          k =-0.1250 0.6250-0.1250 (   762 PWs)   bands (ev):

    -4.0495   1.1110   3.4056   3.8607   7.4026   8.9393  11.9647  12.2589

          k = 0.7500-0.2500 0.7500 (   763 PWs)   bands (ev):

    -3.1399  -0.3052   2.5537   3.8628   7.5736  10.4751  11.7035  11.9252

          k = 0.6250-0.1250 0.6250 (   763 PWs)   bands (ev):

    -2.9411  -0.5571   2.1036   4.1760   7.8899  11.4547  11.4884  12.9376

          k = 0.5000 0.0000 0.5000 (   762 PWs)   bands (ev):

    -3.8030   0.5832   2.3444   4.7256   8.4763  10.7929  11.1349  12.0979

          k = 0.0000 0.7500 0.0000 (   765 PWs)   bands (ev):

    -3.4553   0.3122   3.4676   3.4676   6.6786   7.6055  13.9966  13.9967

          k = 0.8750-0.1250 0.8750 (   762 PWs)   bands (ev):

    -2.5719  -0.7586   2.6566   3.3921   6.9595   8.0185  14.2322  14.2931

          k = 0.7500 0.0000 0.7500 (   746 PWs)   bands (ev):

    -2.1451  -1.1465   1.8088   3.6458   7.2643  10.1547  13.4352  14.1462

          k = 0.0000-1.0000 0.0000 (   740 PWs)   bands (ev):

    -1.7306  -1.7306   3.2250   3.2250   6.7791   6.7792  16.0009  16.0010

          k =-0.2500 0.5000 0.0000 (   765 PWs)   bands (ev):

    -4.5055   1.7592   3.3670   4.6273   8.4803   9.8778  10.2416  11.4920

          k = 0.6250-0.3750 0.8750 (   766 PWs)   bands (ev):

    -3.6319   0.2318   2.7617   4.1363   8.9042   9.5724  11.0248  11.9301

          k = 0.5000-0.2500 0.7500 (   764 PWs)   bands (ev):

    -2.9936  -0.6937   2.6309   3.9115   9.0690   9.1820  11.8990  13.3619

          k = 0.7500-0.2500 1.0000 (   763 PWs)   bands (ev):

    -3.2607   0.0960   2.7278   3.3225   7.9906   8.6943  11.7377  13.9480

          k = 0.6250-0.1250 0.8750 (   754 PWs)   bands (ev):

    -2.4024  -0.8570   2.0433   3.1253   8.4311  10.3114  11.2634  13.4087

          k = 0.5000 0.0000 0.7500 (   755 PWs)   bands (ev):

    -2.7476  -0.4979   1.8799   3.4943   8.9030  10.5596  11.2150  13.0172

          k =-0.2500-1.0000 0.0000 (   754 PWs)   bands (ev):

    -1.6559  -1.6559   2.6756   2.6756   8.0199   8.0199  13.8100  13.8100

          k =-0.5000-1.0000 0.0000 (   744 PWs)   bands (ev):

    -1.5739  -1.5739   2.2506   2.2506  10.3111  10.3111  10.9824  10.9824

     the Fermi energy is     6.5793 ev

!    total energy              =     -22.83968343 Ry
     estimated scf accuracy    <       0.00000009 Ry
     smearing contrib. (-TS)   =       0.00001472 Ry
     internal energy E=F+TS    =     -22.83969816 Ry

     The total energy is F=E-TS. E is the sum of the following terms:
     one-electron contribution =       5.04085186 Ry
     hartree contribution      =       1.11562143 Ry
     xc contribution           =     -12.28952960 Ry
     ewald contribution        =     -16.70664185 Ry

     convergence has been achieved in   4 iterations

     Forces acting on atoms (cartesian axes, Ry/au):

     atom    1 type  1   force =    -0.00000000   -0.00000000   -0.00000000
     atom    2 type  1   force =     0.00000000    0.00000000    0.00000000

     Total force =     0.000000     Total SCF correction =     0.000000

     BFGS Geometry Optimization

     bfgs converged in   1 scf cycles and   0 bfgs steps
     (criteria: energy <  1.0E-04 Ry, force <  1.0E-03 Ry/Bohr)

     End of BFGS Geometry Optimization

     Final energy   =     -22.8396834336 Ry
Begin final coordinates

ATOMIC_POSITIONS (crystal)
Si            0.0000000000        0.0000000000        0.0000000000
Si            0.2500000000        0.2500000000        0.2500000000
End final coordinates



     Writing output data file /home/jesus/Documentos/Nanociencia_DFT/test.save/
 
     init_run     :      0.56s CPU      0.62s WALL (       1 calls)
     electrons    :      2.96s CPU      3.22s WALL (       1 calls)
     forces       :      0.09s CPU      0.13s WALL (       1 calls)

     Called by init_run:
     wfcinit      :      0.19s CPU      0.20s WALL (       1 calls)
     potinit      :      0.02s CPU      0.04s WALL (       1 calls)
     hinit0       :      0.27s CPU      0.29s WALL (       1 calls)

     Called by electrons:
     c_bands      :      2.16s CPU      2.20s WALL (       5 calls)
     sum_band     :      0.56s CPU      0.69s WALL (       5 calls)
     v_of_rho     :      0.10s CPU      0.11s WALL (       5 calls)
     newd         :      0.22s CPU      0.31s WALL (       5 calls)
     mix_rho      :      0.01s CPU      0.01s WALL (       5 calls)

     Called by c_bands:
     init_us_2    :      0.09s CPU      0.09s WALL (     348 calls)
     cegterg      :      1.80s CPU      1.84s WALL (     145 calls)

     Called by *egterg:
     cdiaghg      :      0.06s CPU      0.07s WALL (     551 calls)
     h_psi        :      1.74s CPU      1.78s WALL (     609 calls)
     s_psi        :      0.04s CPU      0.04s WALL (     609 calls)
     g_psi        :      0.01s CPU      0.01s WALL (     435 calls)

     Called by h_psi:
     h_psi:calbec :      0.06s CPU      0.06s WALL (     609 calls)
     vloc_psi     :      1.63s CPU      1.66s WALL (     609 calls)
     add_vuspsi   :      0.04s CPU      0.05s WALL (     609 calls)

     General routines
     calbec       :      0.08s CPU      0.08s WALL (     870 calls)
     fft          :      0.04s CPU      0.06s WALL (      75 calls)
     ffts         :      0.00s CPU      0.00s WALL (      10 calls)
     fftw         :      1.60s CPU      1.63s WALL (    7800 calls)
     interpolate  :      0.01s CPU      0.01s WALL (       5 calls)
 
     Parallel routines
 
     PWSCF        :      4.31s CPU      4.76s WALL

 
   This run was terminated on:  16:52:31   2Apr2021            

=------------------------------------------------------------------------------=
   JOB DONE.
=------------------------------------------------------------------------------=
