
     Program PWSCF v.6.6 starts on  2Apr2021 at 16:52:36 

     This program is part of the open-source Quantum ESPRESSO suite
     for quantum simulation of materials; please cite
         "P. Giannozzi et al., J. Phys.:Condens. Matter 21 395502 (2009);
         "P. Giannozzi et al., J. Phys.:Condens. Matter 29 465901 (2017);
          URL http://www.quantum-espresso.org", 
     in publications or presentations arising from this work. More details at
     http://www.quantum-espresso.org/quote

     Parallel version (MPI), running on     1 processors

     MPI processes distributed on     1 nodes
     Fft bands division:     nmany     =       1
     Waiting for input...
     Reading input from standard input
Warning: card &CELL ignored
Warning: card   CELL_DYNAMICS='BFGS', ignored
Warning: card   CELL_DOFREE='ALL', ignored
Warning: card / ignored

     Current dimensions of program PWSCF are:
     Max number of different atomic species (ntypx) = 10
     Max number of k-points (npk) =  40000
     Max angular momentum in pseudopotentials (lmaxx) =  3

     Subspace diagonalization in iterative solution of the eigenvalue problem:
     a serial algorithm will be used

 
     G-vector sticks info
     --------------------
     sticks:   dense  smooth     PW     G-vecs:    dense   smooth      PW
     Sum         889     439    151                17453     6183    1139
 


     bravais-lattice index     =            2
     lattice parameter (alat)  =      10.3557  a.u.
     unit-cell volume          =     277.6376 (a.u.)^3
     number of atoms/cell      =            2
     number of atomic types    =            1
     number of electrons       =         8.00
     number of Kohn-Sham states=            8
     kinetic-energy cutoff     =      30.0000  Ry
     charge density cutoff     =     240.0000  Ry
     convergence threshold     =      1.0E-06
     mixing beta               =       0.7000
     number of iterations used =            8  plain     mixing
     Exchange-correlation= PBE
                           (   1   4   3   4   0   0   0)
     nstep                     =            1


     celldm(1)=  10.355699  celldm(2)=   0.000000  celldm(3)=   0.000000
     celldm(4)=   0.000000  celldm(5)=   0.000000  celldm(6)=   0.000000

     crystal axes: (cart. coord. in units of alat)
               a(1) = (  -0.500000   0.000000   0.500000 )  
               a(2) = (   0.000000   0.500000   0.500000 )  
               a(3) = (  -0.500000   0.500000   0.000000 )  

     reciprocal axes: (cart. coord. in units 2 pi/alat)
               b(1) = ( -1.000000 -1.000000  1.000000 )  
               b(2) = (  1.000000  1.000000  1.000000 )  
               b(3) = ( -1.000000  1.000000 -1.000000 )  


     PseudoPot. # 1 for Si read from file:
     /home/jesus/Documentos/Nanociencia_DFT/pseudopotenciales/Si.pbe-n-rrkjus_psl.1.0.0.UPF
     MD5 check sum: fa25574f73a70a4139f2adfbefec430c
     Pseudo is Ultrasoft + core correction, Zval =  4.0
     Generated using "atomic" code by A. Dal Corso v.6.3
     Using radial grid of 1141 points,  6 beta functions with: 
                l(1) =   0
                l(2) =   0
                l(3) =   1
                l(4) =   1
                l(5) =   2
                l(6) =   2
     Q(r) pseudized with 0 coefficients 


     atomic species   valence    mass     pseudopotential
        Si             4.00    28.08550     Si( 1.00)

     48 Sym. Ops., with inversion, found (24 have fractional translation)



   Cartesian axes

     site n.     atom                  positions (alat units)
         1           Si  tau(   1) = (   0.0000000   0.0000000   0.0000000  )
         2           Si  tau(   2) = (  -0.2500000   0.2500000   0.2500000  )

     number of k points=    29  Methfessel-Paxton smearing, width (Ry)=  0.0100
                       cart. coord. in units 2pi/alat
        k(    1) = (   0.0000000   0.0000000   0.0000000), wk =   0.0039062
        k(    2) = (  -0.1250000   0.1250000  -0.1250000), wk =   0.0312500
        k(    3) = (  -0.2500000   0.2500000  -0.2500000), wk =   0.0312500
        k(    4) = (  -0.3750000   0.3750000  -0.3750000), wk =   0.0312500
        k(    5) = (   0.5000000  -0.5000000   0.5000000), wk =   0.0156250
        k(    6) = (   0.0000000   0.2500000   0.0000000), wk =   0.0234375
        k(    7) = (  -0.1250000   0.3750000  -0.1250000), wk =   0.0937500
        k(    8) = (  -0.2500000   0.5000000  -0.2500000), wk =   0.0937500
        k(    9) = (   0.6250000  -0.3750000   0.6250000), wk =   0.0937500
        k(   10) = (   0.5000000  -0.2500000   0.5000000), wk =   0.0937500
        k(   11) = (   0.3750000  -0.1250000   0.3750000), wk =   0.0937500
        k(   12) = (   0.2500000   0.0000000   0.2500000), wk =   0.0468750
        k(   13) = (   0.0000000   0.5000000   0.0000000), wk =   0.0234375
        k(   14) = (  -0.1250000   0.6250000  -0.1250000), wk =   0.0937500
        k(   15) = (   0.7500000  -0.2500000   0.7500000), wk =   0.0937500
        k(   16) = (   0.6250000  -0.1250000   0.6250000), wk =   0.0937500
        k(   17) = (   0.5000000   0.0000000   0.5000000), wk =   0.0468750
        k(   18) = (   0.0000000   0.7500000   0.0000000), wk =   0.0234375
        k(   19) = (   0.8750000  -0.1250000   0.8750000), wk =   0.0937500
        k(   20) = (   0.7500000   0.0000000   0.7500000), wk =   0.0468750
        k(   21) = (   0.0000000  -1.0000000   0.0000000), wk =   0.0117188
        k(   22) = (  -0.2500000   0.5000000   0.0000000), wk =   0.0937500
        k(   23) = (   0.6250000  -0.3750000   0.8750000), wk =   0.1875000
        k(   24) = (   0.5000000  -0.2500000   0.7500000), wk =   0.0937500
        k(   25) = (   0.7500000  -0.2500000   1.0000000), wk =   0.0937500
        k(   26) = (   0.6250000  -0.1250000   0.8750000), wk =   0.1875000
        k(   27) = (   0.5000000   0.0000000   0.7500000), wk =   0.0937500
        k(   28) = (  -0.2500000  -1.0000000   0.0000000), wk =   0.0468750
        k(   29) = (  -0.5000000  -1.0000000   0.0000000), wk =   0.0234375

     Dense  grid:    17453 G-vectors     FFT dimensions: (  40,  40,  40)

     Smooth grid:     6183 G-vectors     FFT dimensions: (  32,  32,  32)

     Estimated max dynamical RAM per process >      66.79 MB

     Initial potential from superposition of free atoms

     starting charge    7.99888, renormalised to    8.00000
     Starting wfcs are    8 randomized atomic wfcs

     total cpu time spent up to now is        1.3 secs

     Self-consistent Calculation

     iteration #  1     ecut=    30.00 Ry     beta= 0.70
     Davidson diagonalization with overlap
     ethr =  1.00E-02,  avg # of iterations =  3.7

     Threshold (ethr) on eigenvalues was too large:
     Diagonalizing with lowered threshold

     Davidson diagonalization with overlap
     ethr =  6.18E-04,  avg # of iterations =  2.1

     total cpu time spent up to now is        2.6 secs

     total energy              =     -22.83744410 Ry
     estimated scf accuracy    <       0.05329261 Ry

     iteration #  2     ecut=    30.00 Ry     beta= 0.70
     Davidson diagonalization with overlap
     ethr =  6.66E-04,  avg # of iterations =  1.0

     total cpu time spent up to now is        3.2 secs

     total energy              =     -22.83953793 Ry
     estimated scf accuracy    <       0.00222675 Ry

     iteration #  3     ecut=    30.00 Ry     beta= 0.70
     Davidson diagonalization with overlap
     ethr =  2.78E-05,  avg # of iterations =  5.0

     total cpu time spent up to now is        3.9 secs

     total energy              =     -22.83967535 Ry
     estimated scf accuracy    <       0.00004499 Ry

     iteration #  4     ecut=    30.00 Ry     beta= 0.70
     Davidson diagonalization with overlap
     ethr =  5.62E-07,  avg # of iterations =  4.2

     total cpu time spent up to now is        4.6 secs

     End of self-consistent calculation

          k = 0.0000 0.0000 0.0000 (   749 PWs)   bands (ev):

    -5.8538   5.9241   5.9241   5.9241   8.4752   8.4752   8.4752   8.9750

          k =-0.1250 0.1250-0.1250 (   773 PWs)   bands (ev):

    -5.6544   4.3317   5.6425   5.6425   8.3432   8.8889   8.8889  10.3961

          k =-0.2500 0.2500-0.2500 (   778 PWs)   bands (ev):

    -5.0734   2.0439   5.1809   5.1809   7.8574   9.4077   9.4078  12.6179

          k =-0.3750 0.3750-0.3750 (   769 PWs)   bands (ev):

    -4.2046   0.0691   4.8587   4.8587   7.4929   9.3773   9.3773  13.7475

          k = 0.5000-0.5000 0.5000 (   778 PWs)   bands (ev):

    -3.5906  -0.9222   4.7482   4.7482   7.3649   9.2763   9.2763  13.6201

          k = 0.0000 0.2500 0.0000 (   769 PWs)   bands (ev):

    -5.5872   4.5627   5.1412   5.1412   7.9377   9.5846   9.5846  10.0801

          k =-0.1250 0.3750-0.1250 (   781 PWs)   bands (ev):

    -5.1298   2.7182   4.6405   4.7008   8.0662   9.5184  10.3386  10.6612

          k =-0.2500 0.5000-0.2500 (   783 PWs)   bands (ev):

    -4.3361   0.7067   4.1191   4.3760   8.1441   9.4997  10.3592  11.3582

          k = 0.6250-0.3750 0.6250 (   773 PWs)   bands (ev):

    -3.5036  -0.7146   3.6841   4.3972   8.0747   9.4050  10.0161  13.2100

          k = 0.5000-0.2500 0.5000 (   768 PWs)   bands (ev):

    -3.7388  -0.3560   3.5107   4.6848   8.2184   9.5284   9.7866  13.7229

          k = 0.3750-0.1250 0.3750 (   776 PWs)   bands (ev):

    -4.6342   1.3494   3.6662   5.1639   8.5563   9.5786   9.7545  12.1072

          k = 0.2500 0.0000 0.2500 (   775 PWs)   bands (ev):

    -5.3262   3.2473   4.3430   5.6340   8.8639   9.0254   9.2468  11.3136

          k = 0.0000 0.5000 0.0000 (   769 PWs)   bands (ev):

    -4.7972   2.3998   4.0834   4.0834   7.0797   9.0601  11.5935  11.5935

          k =-0.1250 0.6250-0.1250 (   775 PWs)   bands (ev):

    -4.1048   1.0102   3.3211   3.7713   7.2996   8.8298  11.8053  12.1136

          k = 0.7500-0.2500 0.7500 (   768 PWs)   bands (ev):

    -3.2060  -0.3888   2.4772   3.7728   7.4713  10.3531  11.5391  11.7901

          k = 0.6250-0.1250 0.6250 (   769 PWs)   bands (ev):

    -3.0108  -0.6364   2.0328   4.0823   7.7821  11.3081  11.3555  12.7856

          k = 0.5000 0.0000 0.5000 (   762 PWs)   bands (ev):

    -3.8617   0.4903   2.2738   4.6257   8.3559  10.6580  10.9966  11.9290

          k = 0.0000 0.7500 0.0000 (   765 PWs)   bands (ev):

    -3.5159   0.2153   3.3819   3.3819   6.5836   7.5107  13.8295  13.8295

          k = 0.8750-0.1250 0.8750 (   763 PWs)   bands (ev):

    -2.6419  -0.8459   2.5829   3.3069   6.8650   7.9145  14.0706  14.1144

          k = 0.7500 0.0000 0.7500 (   762 PWs)   bands (ev):

    -2.2230  -1.2280   1.7472   3.5578   7.1664  10.0330  13.2752  13.8150

          k = 0.0000-1.0000 0.0000 (   774 PWs)   bands (ev):

    -1.8081  -1.8081   3.1413   3.1413   6.6873   6.6873  15.7955  15.7955

          k =-0.2500 0.5000 0.0000 (   776 PWs)   bands (ev):

    -4.5564   1.6561   3.2850   4.5284   8.3647   9.7231  10.1343  11.3472

          k = 0.6250-0.3750 0.8750 (   770 PWs)   bands (ev):

    -3.6925   0.1454   2.6818   4.0445   8.7834   9.4464  10.8899  11.7876

          k = 0.5000-0.2500 0.7500 (   764 PWs)   bands (ev):

    -3.0635  -0.7670   2.5496   3.8231   8.9324   9.0764  11.7518  12.9812

          k = 0.7500-0.2500 1.0000 (   763 PWs)   bands (ev):

    -3.3241   0.0011   2.6525   3.2416   7.8819   8.5873  11.5887  13.7817

          k = 0.6250-0.1250 0.8750 (   762 PWs)   bands (ev):

    -2.4766  -0.9419   1.9772   3.0468   8.3213  10.1922  11.1165  13.2490

          k = 0.5000 0.0000 0.7500 (   769 PWs)   bands (ev):

    -2.8183  -0.5856   1.8160   3.4111   8.7875  10.4310  11.0762  12.8689

          k =-0.2500-1.0000 0.0000 (   760 PWs)   bands (ev):

    -1.7355  -1.7355   2.6019   2.6019   7.9147   7.9148  13.6471  13.6471

          k =-0.5000-1.0000 0.0000 (   772 PWs)   bands (ev):

    -1.6560  -1.6560   2.1840   2.1840  10.1992  10.1992  10.8309  10.8309

     the Fermi energy is     6.4838 ev

!    total energy              =     -22.83968301 Ry
     estimated scf accuracy    <       0.00000011 Ry
     smearing contrib. (-TS)   =       0.00001450 Ry
     internal energy E=F+TS    =     -22.83969750 Ry

     The total energy is F=E-TS. E is the sum of the following terms:
     one-electron contribution =       4.95694702 Ry
     hartree contribution      =       1.12534091 Ry
     xc contribution           =     -12.27631673 Ry
     ewald contribution        =     -16.64566870 Ry

     convergence has been achieved in   4 iterations

     Forces acting on atoms (cartesian axes, Ry/au):

     atom    1 type  1   force =     0.00000000    0.00000000   -0.00000000
     atom    2 type  1   force =    -0.00000000   -0.00000000    0.00000000

     Total force =     0.000000     Total SCF correction =     0.000000

     BFGS Geometry Optimization

     bfgs converged in   1 scf cycles and   0 bfgs steps
     (criteria: energy <  1.0E-04 Ry, force <  1.0E-03 Ry/Bohr)

     End of BFGS Geometry Optimization

     Final energy   =     -22.8396830084 Ry
Begin final coordinates

ATOMIC_POSITIONS (crystal)
Si            0.0000000000        0.0000000000        0.0000000000
Si            0.2500000000        0.2500000000        0.2500000000
End final coordinates



     Writing output data file /home/jesus/Documentos/Nanociencia_DFT/test.save/
 
     init_run     :      0.55s CPU      0.63s WALL (       1 calls)
     electrons    :      3.07s CPU      3.29s WALL (       1 calls)
     forces       :      0.11s CPU      0.14s WALL (       1 calls)

     Called by init_run:
     wfcinit      :      0.17s CPU      0.18s WALL (       1 calls)
     potinit      :      0.04s CPU      0.05s WALL (       1 calls)
     hinit0       :      0.26s CPU      0.29s WALL (       1 calls)

     Called by electrons:
     c_bands      :      2.21s CPU      2.25s WALL (       5 calls)
     sum_band     :      0.57s CPU      0.69s WALL (       5 calls)
     v_of_rho     :      0.14s CPU      0.15s WALL (       5 calls)
     newd         :      0.21s CPU      0.31s WALL (       5 calls)
     mix_rho      :      0.01s CPU      0.01s WALL (       5 calls)

     Called by c_bands:
     init_us_2    :      0.08s CPU      0.09s WALL (     348 calls)
     cegterg      :      1.86s CPU      1.89s WALL (     145 calls)

     Called by *egterg:
     cdiaghg      :      0.07s CPU      0.07s WALL (     581 calls)
     h_psi        :      1.78s CPU      1.81s WALL (     639 calls)
     s_psi        :      0.04s CPU      0.04s WALL (     639 calls)
     g_psi        :      0.01s CPU      0.01s WALL (     465 calls)

     Called by h_psi:
     h_psi:calbec :      0.06s CPU      0.06s WALL (     639 calls)
     vloc_psi     :      1.67s CPU      1.69s WALL (     639 calls)
     add_vuspsi   :      0.04s CPU      0.05s WALL (     639 calls)

     General routines
     calbec       :      0.08s CPU      0.08s WALL (     900 calls)
     fft          :      0.05s CPU      0.08s WALL (      75 calls)
     ffts         :      0.00s CPU      0.00s WALL (      10 calls)
     fftw         :      1.67s CPU      1.69s WALL (    7876 calls)
     interpolate  :      0.01s CPU      0.01s WALL (       5 calls)
 
     Parallel routines
 
     PWSCF        :      4.40s CPU      4.81s WALL

 
   This run was terminated on:  16:52:41   2Apr2021            

=------------------------------------------------------------------------------=
   JOB DONE.
=------------------------------------------------------------------------------=
