
     Program PWSCF v.6.6 starts on  2Apr2021 at 16:52:21 

     This program is part of the open-source Quantum ESPRESSO suite
     for quantum simulation of materials; please cite
         "P. Giannozzi et al., J. Phys.:Condens. Matter 21 395502 (2009);
         "P. Giannozzi et al., J. Phys.:Condens. Matter 29 465901 (2017);
          URL http://www.quantum-espresso.org", 
     in publications or presentations arising from this work. More details at
     http://www.quantum-espresso.org/quote

     Parallel version (MPI), running on     1 processors

     MPI processes distributed on     1 nodes
     Fft bands division:     nmany     =       1
     Waiting for input...
     Reading input from standard input
Warning: card &CELL ignored
Warning: card   CELL_DYNAMICS='BFGS', ignored
Warning: card   CELL_DOFREE='ALL', ignored
Warning: card / ignored

     Current dimensions of program PWSCF are:
     Max number of different atomic species (ntypx) = 10
     Max number of k-points (npk) =  40000
     Max angular momentum in pseudopotentials (lmaxx) =  3

     Subspace diagonalization in iterative solution of the eigenvalue problem:
     a serial algorithm will be used

 
     G-vector sticks info
     --------------------
     sticks:   dense  smooth     PW     G-vecs:    dense   smooth      PW
     Sum         871     433    151                17153     5985    1139
 


     bravais-lattice index     =            2
     lattice parameter (alat)  =      10.2990  a.u.
     unit-cell volume          =     273.1028 (a.u.)^3
     number of atoms/cell      =            2
     number of atomic types    =            1
     number of electrons       =         8.00
     number of Kohn-Sham states=            8
     kinetic-energy cutoff     =      30.0000  Ry
     charge density cutoff     =     240.0000  Ry
     convergence threshold     =      1.0E-06
     mixing beta               =       0.7000
     number of iterations used =            8  plain     mixing
     Exchange-correlation= PBE
                           (   1   4   3   4   0   0   0)
     nstep                     =            1


     celldm(1)=  10.299007  celldm(2)=   0.000000  celldm(3)=   0.000000
     celldm(4)=   0.000000  celldm(5)=   0.000000  celldm(6)=   0.000000

     crystal axes: (cart. coord. in units of alat)
               a(1) = (  -0.500000   0.000000   0.500000 )  
               a(2) = (   0.000000   0.500000   0.500000 )  
               a(3) = (  -0.500000   0.500000   0.000000 )  

     reciprocal axes: (cart. coord. in units 2 pi/alat)
               b(1) = ( -1.000000 -1.000000  1.000000 )  
               b(2) = (  1.000000  1.000000  1.000000 )  
               b(3) = ( -1.000000  1.000000 -1.000000 )  


     PseudoPot. # 1 for Si read from file:
     /home/jesus/Documentos/Nanociencia_DFT/pseudopotenciales/Si.pbe-n-rrkjus_psl.1.0.0.UPF
     MD5 check sum: fa25574f73a70a4139f2adfbefec430c
     Pseudo is Ultrasoft + core correction, Zval =  4.0
     Generated using "atomic" code by A. Dal Corso v.6.3
     Using radial grid of 1141 points,  6 beta functions with: 
                l(1) =   0
                l(2) =   0
                l(3) =   1
                l(4) =   1
                l(5) =   2
                l(6) =   2
     Q(r) pseudized with 0 coefficients 


     atomic species   valence    mass     pseudopotential
        Si             4.00    28.08550     Si( 1.00)

     48 Sym. Ops., with inversion, found (24 have fractional translation)



   Cartesian axes

     site n.     atom                  positions (alat units)
         1           Si  tau(   1) = (   0.0000000   0.0000000   0.0000000  )
         2           Si  tau(   2) = (  -0.2500000   0.2500000   0.2500000  )

     number of k points=    29  Methfessel-Paxton smearing, width (Ry)=  0.0100
                       cart. coord. in units 2pi/alat
        k(    1) = (   0.0000000   0.0000000   0.0000000), wk =   0.0039062
        k(    2) = (  -0.1250000   0.1250000  -0.1250000), wk =   0.0312500
        k(    3) = (  -0.2500000   0.2500000  -0.2500000), wk =   0.0312500
        k(    4) = (  -0.3750000   0.3750000  -0.3750000), wk =   0.0312500
        k(    5) = (   0.5000000  -0.5000000   0.5000000), wk =   0.0156250
        k(    6) = (   0.0000000   0.2500000   0.0000000), wk =   0.0234375
        k(    7) = (  -0.1250000   0.3750000  -0.1250000), wk =   0.0937500
        k(    8) = (  -0.2500000   0.5000000  -0.2500000), wk =   0.0937500
        k(    9) = (   0.6250000  -0.3750000   0.6250000), wk =   0.0937500
        k(   10) = (   0.5000000  -0.2500000   0.5000000), wk =   0.0937500
        k(   11) = (   0.3750000  -0.1250000   0.3750000), wk =   0.0937500
        k(   12) = (   0.2500000   0.0000000   0.2500000), wk =   0.0468750
        k(   13) = (   0.0000000   0.5000000   0.0000000), wk =   0.0234375
        k(   14) = (  -0.1250000   0.6250000  -0.1250000), wk =   0.0937500
        k(   15) = (   0.7500000  -0.2500000   0.7500000), wk =   0.0937500
        k(   16) = (   0.6250000  -0.1250000   0.6250000), wk =   0.0937500
        k(   17) = (   0.5000000   0.0000000   0.5000000), wk =   0.0468750
        k(   18) = (   0.0000000   0.7500000   0.0000000), wk =   0.0234375
        k(   19) = (   0.8750000  -0.1250000   0.8750000), wk =   0.0937500
        k(   20) = (   0.7500000   0.0000000   0.7500000), wk =   0.0468750
        k(   21) = (   0.0000000  -1.0000000   0.0000000), wk =   0.0117188
        k(   22) = (  -0.2500000   0.5000000   0.0000000), wk =   0.0937500
        k(   23) = (   0.6250000  -0.3750000   0.8750000), wk =   0.1875000
        k(   24) = (   0.5000000  -0.2500000   0.7500000), wk =   0.0937500
        k(   25) = (   0.7500000  -0.2500000   1.0000000), wk =   0.0937500
        k(   26) = (   0.6250000  -0.1250000   0.8750000), wk =   0.1875000
        k(   27) = (   0.5000000   0.0000000   0.7500000), wk =   0.0937500
        k(   28) = (  -0.2500000  -1.0000000   0.0000000), wk =   0.0468750
        k(   29) = (  -0.5000000  -1.0000000   0.0000000), wk =   0.0234375

     Dense  grid:    17153 G-vectors     FFT dimensions: (  36,  36,  36)

     Smooth grid:     5985 G-vectors     FFT dimensions: (  32,  32,  32)

     Estimated max dynamical RAM per process >      64.56 MB

     Initial potential from superposition of free atoms

     starting charge    7.99888, renormalised to    8.00000
     Starting wfcs are    8 randomized atomic wfcs

     total cpu time spent up to now is        1.3 secs

     Self-consistent Calculation

     iteration #  1     ecut=    30.00 Ry     beta= 0.70
     Davidson diagonalization with overlap
     ethr =  1.00E-02,  avg # of iterations =  3.7

     Threshold (ethr) on eigenvalues was too large:
     Diagonalizing with lowered threshold

     Davidson diagonalization with overlap
     ethr =  6.36E-04,  avg # of iterations =  1.8

     total cpu time spent up to now is        2.5 secs

     total energy              =     -22.83724503 Ry
     estimated scf accuracy    <       0.05466578 Ry

     iteration #  2     ecut=    30.00 Ry     beta= 0.70
     Davidson diagonalization with overlap
     ethr =  6.83E-04,  avg # of iterations =  1.2

     total cpu time spent up to now is        3.1 secs

     total energy              =     -22.83946472 Ry
     estimated scf accuracy    <       0.00222303 Ry

     iteration #  3     ecut=    30.00 Ry     beta= 0.70
     Davidson diagonalization with overlap
     ethr =  2.78E-05,  avg # of iterations =  5.2

     total cpu time spent up to now is        3.8 secs

     total energy              =     -22.83960061 Ry
     estimated scf accuracy    <       0.00004666 Ry

     iteration #  4     ecut=    30.00 Ry     beta= 0.70
     Davidson diagonalization with overlap
     ethr =  5.83E-07,  avg # of iterations =  3.5

     total cpu time spent up to now is        4.4 secs

     End of self-consistent calculation

          k = 0.0000 0.0000 0.0000 (   749 PWs)   bands (ev):

    -5.7962   6.0931   6.0931   6.0931   8.6514   8.6514   8.6514   9.3308

          k =-0.1250 0.1250-0.1250 (   752 PWs)   bands (ev):

    -5.5940   4.4965   5.8070   5.8070   8.5629   9.0718   9.0718  10.7062

          k =-0.2500 0.2500-0.2500 (   757 PWs)   bands (ev):

    -5.0043   2.1838   5.3395   5.3395   8.0840   9.5908   9.5909  12.9220

          k =-0.3750 0.3750-0.3750 (   763 PWs)   bands (ev):

    -4.1205   0.1815   5.0141   5.0141   7.7200   9.5462   9.5463  13.9556

          k = 0.5000-0.5000 0.5000 (   754 PWs)   bands (ev):

    -3.4921  -0.8287   4.9027   4.9027   7.5920   9.4393   9.4394  13.8119

          k = 0.0000 0.2500 0.0000 (   769 PWs)   bands (ev):

    -5.5259   4.7481   5.2954   5.2954   8.1057   9.7800   9.7800  10.3940

          k =-0.1250 0.3750-0.1250 (   765 PWs)   bands (ev):

    -5.0617   2.8756   4.7878   4.8576   8.2394   9.7561  10.5408  10.8420

          k =-0.2500 0.5000-0.2500 (   775 PWs)   bands (ev):

    -4.2553   0.8341   4.2698   4.5210   8.3307   9.7088  10.5473  11.5500

          k = 0.6250-0.3750 0.6250 (   759 PWs)   bands (ev):

    -3.4054  -0.6128   3.8283   4.5441   8.2711   9.5951  10.1920  13.4320

          k = 0.5000-0.2500 0.5000 (   765 PWs)   bands (ev):

    -3.6462  -0.2469   3.6498   4.8372   8.4281   9.7101   9.9607  13.9645

          k = 0.3750-0.1250 0.3750 (   757 PWs)   bands (ev):

    -4.5583   1.4869   3.8025   5.3241   8.7781   9.7620   9.9410  12.3473

          k = 0.2500 0.0000 0.2500 (   759 PWs)   bands (ev):

    -5.2610   3.4114   4.4828   5.8012   9.0950   9.2082   9.4391  11.5793

          k = 0.0000 0.5000 0.0000 (   769 PWs)   bands (ev):

    -4.7245   2.5724   4.2219   4.2219   7.2338   9.2300  11.8164  11.8164

          k =-0.1250 0.6250-0.1250 (   760 PWs)   bands (ev):

    -4.0215   1.1620   3.4485   3.9060   7.4546   8.9944  12.0454  12.3322

          k = 0.7500-0.2500 0.7500 (   758 PWs)   bands (ev):

    -3.1063  -0.2629   2.5926   3.9085   7.6251  10.5364  11.7867  11.9934

          k = 0.6250-0.1250 0.6250 (   759 PWs)   bands (ev):

    -2.9057  -0.5170   2.1396   4.2235   7.9442  11.5285  11.5556  13.0148

          k = 0.5000 0.0000 0.5000 (   762 PWs)   bands (ev):

    -3.7731   0.6302   2.3802   4.7762   8.5370  10.8611  11.2046  12.1834

          k = 0.0000 0.7500 0.0000 (   765 PWs)   bands (ev):

    -3.4244   0.3613   3.5111   3.5111   6.7266   7.6532  14.0811  14.0811

          k = 0.8750-0.1250 0.8750 (   759 PWs)   bands (ev):

    -2.5364  -0.7144   2.6940   3.4353   7.0072   8.0711  14.3134  14.3832

          k = 0.7500 0.0000 0.7500 (   746 PWs)   bands (ev):

    -2.1055  -1.1052   1.8400   3.6904   7.3136  10.2161  13.5160  14.0605

          k = 0.0000-1.0000 0.0000 (   740 PWs)   bands (ev):

    -1.6913  -1.6913   3.2674   3.2674   6.8254   6.8254  16.1047  16.1048

          k =-0.2500 0.5000 0.0000 (   761 PWs)   bands (ev):

    -4.4797   1.8113   3.4086   4.6775   8.5387   9.9556  10.2960  11.5651

          k = 0.6250-0.3750 0.8750 (   759 PWs)   bands (ev):

    -3.6011   0.2756   2.8024   4.1828   8.9650   9.6360  11.0930  12.0023

          k = 0.5000-0.2500 0.7500 (   750 PWs)   bands (ev):

    -2.9580  -0.6566   2.6722   3.9564   9.1380   9.2354  11.9735  13.4423

          k = 0.7500-0.2500 1.0000 (   755 PWs)   bands (ev):

    -3.2285   0.1442   2.7660   3.3635   8.0455   8.7484  11.8131  14.0320

          k = 0.6250-0.1250 0.8750 (   751 PWs)   bands (ev):

    -2.3646  -0.8139   2.0768   3.1652   8.4866  10.3716  11.3376  13.4890

          k = 0.5000 0.0000 0.7500 (   747 PWs)   bands (ev):

    -2.7117  -0.4534   1.9122   3.5365   8.9612  10.6246  11.2850  13.0917

          k =-0.2500-1.0000 0.0000 (   754 PWs)   bands (ev):

    -1.6155  -1.6155   2.7130   2.7130   8.0730   8.0731  13.8922  13.8922

          k =-0.5000-1.0000 0.0000 (   744 PWs)   bands (ev):

    -1.5321  -1.5321   2.2843   2.2843  10.3676  10.3676  11.0588  11.0588

     the Fermi energy is     6.6276 ev

!    total energy              =     -22.83960789 Ry
     estimated scf accuracy    <       0.00000009 Ry
     smearing contrib. (-TS)   =       0.00001485 Ry
     internal energy E=F+TS    =     -22.83962274 Ry

     The total energy is F=E-TS. E is the sum of the following terms:
     one-electron contribution =       5.08312028 Ry
     hartree contribution      =       1.11073337 Ry
     xc contribution           =     -12.29618014 Ry
     ewald contribution        =     -16.73729624 Ry

     convergence has been achieved in   4 iterations

     Forces acting on atoms (cartesian axes, Ry/au):

     atom    1 type  1   force =    -0.00000000   -0.00000000   -0.00000000
     atom    2 type  1   force =     0.00000000    0.00000000    0.00000000

     Total force =     0.000000     Total SCF correction =     0.000000

     BFGS Geometry Optimization

     bfgs converged in   1 scf cycles and   0 bfgs steps
     (criteria: energy <  1.0E-04 Ry, force <  1.0E-03 Ry/Bohr)

     End of BFGS Geometry Optimization

     Final energy   =     -22.8396078927 Ry
Begin final coordinates

ATOMIC_POSITIONS (crystal)
Si            0.0000000000        0.0000000000        0.0000000000
Si            0.2500000000        0.2500000000        0.2500000000
End final coordinates



     Writing output data file /home/jesus/Documentos/Nanociencia_DFT/test.save/
 
     init_run     :      0.56s CPU      0.63s WALL (       1 calls)
     electrons    :      2.86s CPU      3.12s WALL (       1 calls)
     forces       :      0.11s CPU      0.12s WALL (       1 calls)

     Called by init_run:
     wfcinit      :      0.18s CPU      0.19s WALL (       1 calls)
     potinit      :      0.03s CPU      0.04s WALL (       1 calls)
     hinit0       :      0.27s CPU      0.30s WALL (       1 calls)

     Called by electrons:
     c_bands      :      2.07s CPU      2.12s WALL (       5 calls)
     sum_band     :      0.57s CPU      0.68s WALL (       5 calls)
     v_of_rho     :      0.10s CPU      0.11s WALL (       5 calls)
     newd         :      0.18s CPU      0.31s WALL (       5 calls)
     mix_rho      :      0.01s CPU      0.01s WALL (       5 calls)

     Called by c_bands:
     init_us_2    :      0.08s CPU      0.08s WALL (     348 calls)
     cegterg      :      1.73s CPU      1.77s WALL (     145 calls)

     Called by *egterg:
     cdiaghg      :      0.06s CPU      0.07s WALL (     561 calls)
     h_psi        :      1.67s CPU      1.71s WALL (     619 calls)
     s_psi        :      0.04s CPU      0.04s WALL (     619 calls)
     g_psi        :      0.01s CPU      0.01s WALL (     445 calls)

     Called by h_psi:
     h_psi:calbec :      0.05s CPU      0.06s WALL (     619 calls)
     vloc_psi     :      1.56s CPU      1.60s WALL (     619 calls)
     add_vuspsi   :      0.04s CPU      0.04s WALL (     619 calls)

     General routines
     calbec       :      0.08s CPU      0.08s WALL (     880 calls)
     fft          :      0.04s CPU      0.06s WALL (      75 calls)
     ffts         :      0.00s CPU      0.00s WALL (      10 calls)
     fftw         :      1.55s CPU      1.58s WALL (    7836 calls)
     interpolate  :      0.00s CPU      0.00s WALL (       5 calls)
 
     Parallel routines
 
     PWSCF        :      4.20s CPU      4.57s WALL

 
   This run was terminated on:  16:52:26   2Apr2021            

=------------------------------------------------------------------------------=
   JOB DONE.
=------------------------------------------------------------------------------=
