
     Program PWSCF v.6.6 starts on 15Mar2021 at 22:34:44 

     This program is part of the open-source Quantum ESPRESSO suite
     for quantum simulation of materials; please cite
         "P. Giannozzi et al., J. Phys.:Condens. Matter 21 395502 (2009);
         "P. Giannozzi et al., J. Phys.:Condens. Matter 29 465901 (2017);
          URL http://www.quantum-espresso.org", 
     in publications or presentations arising from this work. More details at
     http://www.quantum-espresso.org/quote

     Parallel version (MPI), running on     1 processors

     MPI processes distributed on     1 nodes
     Fft bands division:     nmany     =       1
     Waiting for input...
     Reading input from standard input
Warning: card &CELL ignored
Warning: card   CELL_DYNAMICS='BFGS', ignored
Warning: card   CELL_DOFREE='ALL', ignored
Warning: card / ignored

     Current dimensions of program PWSCF are:
     Max number of different atomic species (ntypx) = 10
     Max number of k-points (npk) =  40000
     Max angular momentum in pseudopotentials (lmaxx) =  3

     Subspace diagonalization in iterative solution of the eigenvalue problem:
     a serial algorithm will be used

 
     G-vector sticks info
     --------------------
     sticks:   dense  smooth     PW     G-vecs:    dense   smooth      PW
     Sum        1213     595    199                27725     9841    1759
 


     bravais-lattice index     =            2
     lattice parameter (alat)  =      12.0942  a.u.
     unit-cell volume          =     442.2588 (a.u.)^3
     number of atoms/cell      =            2
     number of atomic types    =            1
     number of electrons       =         8.00
     number of Kohn-Sham states=            8
     kinetic-energy cutoff     =      30.0000  Ry
     charge density cutoff     =     240.0000  Ry
     convergence threshold     =      1.0E-06
     mixing beta               =       0.7000
     number of iterations used =            8  plain     mixing
     Exchange-correlation= PBE
                           (   1   4   3   4   0   0   0)
     nstep                     =            1


     celldm(1)=  12.094247  celldm(2)=   0.000000  celldm(3)=   0.000000
     celldm(4)=   0.000000  celldm(5)=   0.000000  celldm(6)=   0.000000

     crystal axes: (cart. coord. in units of alat)
               a(1) = (  -0.500000   0.000000   0.500000 )  
               a(2) = (   0.000000   0.500000   0.500000 )  
               a(3) = (  -0.500000   0.500000   0.000000 )  

     reciprocal axes: (cart. coord. in units 2 pi/alat)
               b(1) = ( -1.000000 -1.000000  1.000000 )  
               b(2) = (  1.000000  1.000000  1.000000 )  
               b(3) = ( -1.000000  1.000000 -1.000000 )  


     PseudoPot. # 1 for Si read from file:
     /home/jesus/Documentos/Nanociencia_DFT/pseudopotenciales/Si.pbe-n-rrkjus_psl.1.0.0.UPF
     MD5 check sum: fa25574f73a70a4139f2adfbefec430c
     Pseudo is Ultrasoft + core correction, Zval =  4.0
     Generated using "atomic" code by A. Dal Corso v.6.3
     Using radial grid of 1141 points,  6 beta functions with: 
                l(1) =   0
                l(2) =   0
                l(3) =   1
                l(4) =   1
                l(5) =   2
                l(6) =   2
     Q(r) pseudized with 0 coefficients 


     atomic species   valence    mass     pseudopotential
        Si             4.00    28.08550     Si( 1.00)

     48 Sym. Ops., with inversion, found (24 have fractional translation)



   Cartesian axes

     site n.     atom                  positions (alat units)
         1           Si  tau(   1) = (   0.0000000   0.0000000   0.0000000  )
         2           Si  tau(   2) = (  -0.2500000   0.2500000   0.2500000  )

     number of k points=    29  Methfessel-Paxton smearing, width (Ry)=  0.0100
                       cart. coord. in units 2pi/alat
        k(    1) = (   0.0000000   0.0000000   0.0000000), wk =   0.0039062
        k(    2) = (  -0.1250000   0.1250000  -0.1250000), wk =   0.0312500
        k(    3) = (  -0.2500000   0.2500000  -0.2500000), wk =   0.0312500
        k(    4) = (  -0.3750000   0.3750000  -0.3750000), wk =   0.0312500
        k(    5) = (   0.5000000  -0.5000000   0.5000000), wk =   0.0156250
        k(    6) = (   0.0000000   0.2500000   0.0000000), wk =   0.0234375
        k(    7) = (  -0.1250000   0.3750000  -0.1250000), wk =   0.0937500
        k(    8) = (  -0.2500000   0.5000000  -0.2500000), wk =   0.0937500
        k(    9) = (   0.6250000  -0.3750000   0.6250000), wk =   0.0937500
        k(   10) = (   0.5000000  -0.2500000   0.5000000), wk =   0.0937500
        k(   11) = (   0.3750000  -0.1250000   0.3750000), wk =   0.0937500
        k(   12) = (   0.2500000   0.0000000   0.2500000), wk =   0.0468750
        k(   13) = (   0.0000000   0.5000000   0.0000000), wk =   0.0234375
        k(   14) = (  -0.1250000   0.6250000  -0.1250000), wk =   0.0937500
        k(   15) = (   0.7500000  -0.2500000   0.7500000), wk =   0.0937500
        k(   16) = (   0.6250000  -0.1250000   0.6250000), wk =   0.0937500
        k(   17) = (   0.5000000   0.0000000   0.5000000), wk =   0.0468750
        k(   18) = (   0.0000000   0.7500000   0.0000000), wk =   0.0234375
        k(   19) = (   0.8750000  -0.1250000   0.8750000), wk =   0.0937500
        k(   20) = (   0.7500000   0.0000000   0.7500000), wk =   0.0468750
        k(   21) = (   0.0000000  -1.0000000   0.0000000), wk =   0.0117188
        k(   22) = (  -0.2500000   0.5000000   0.0000000), wk =   0.0937500
        k(   23) = (   0.6250000  -0.3750000   0.8750000), wk =   0.1875000
        k(   24) = (   0.5000000  -0.2500000   0.7500000), wk =   0.0937500
        k(   25) = (   0.7500000  -0.2500000   1.0000000), wk =   0.0937500
        k(   26) = (   0.6250000  -0.1250000   0.8750000), wk =   0.1875000
        k(   27) = (   0.5000000   0.0000000   0.7500000), wk =   0.0937500
        k(   28) = (  -0.2500000  -1.0000000   0.0000000), wk =   0.0468750
        k(   29) = (  -0.5000000  -1.0000000   0.0000000), wk =   0.0234375

     Dense  grid:    27725 G-vectors     FFT dimensions: (  48,  48,  48)

     Smooth grid:     9841 G-vectors     FFT dimensions: (  32,  32,  32)

     Estimated max dynamical RAM per process >     106.00 MB

     Initial potential from superposition of free atoms

     starting charge    7.99888, renormalised to    8.00000
     Starting wfcs are    8 randomized atomic wfcs

     total cpu time spent up to now is        1.3 secs

     Self-consistent Calculation

     iteration #  1     ecut=    30.00 Ry     beta= 0.70
     Davidson diagonalization with overlap
     ethr =  1.00E-02,  avg # of iterations =  2.8

     Threshold (ethr) on eigenvalues was too large:
     Diagonalizing with lowered threshold

     Davidson diagonalization with overlap
     ethr =  2.80E-04,  avg # of iterations =  2.6

     total cpu time spent up to now is        3.0 secs

     total energy              =     -22.71536278 Ry
     estimated scf accuracy    <       0.02390337 Ry

     iteration #  2     ecut=    30.00 Ry     beta= 0.70
     Davidson diagonalization with overlap
     ethr =  2.99E-04,  avg # of iterations =  1.0

     total cpu time spent up to now is        3.7 secs

     total energy              =     -22.71552091 Ry
     estimated scf accuracy    <       0.00198826 Ry

     iteration #  3     ecut=    30.00 Ry     beta= 0.70
     Davidson diagonalization with overlap
     ethr =  2.49E-05,  avg # of iterations =  3.4

     total cpu time spent up to now is        4.7 secs

     total energy              =     -22.71558633 Ry
     estimated scf accuracy    <       0.00000314 Ry

     iteration #  4     ecut=    30.00 Ry     beta= 0.70
     Davidson diagonalization with overlap
     ethr =  3.93E-08,  avg # of iterations =  5.0

     total cpu time spent up to now is        6.1 secs

     End of self-consistent calculation

          k = 0.0000 0.0000 0.0000 (  1243 PWs)   bands (ev):

    -7.1706   0.8117   2.0802   2.0802   2.0802   4.3087   4.3088   4.3088

          k =-0.1250 0.1250-0.1250 (  1242 PWs)   bands (ev):

    -7.0420  -0.1771   1.9096   1.9096   2.4985   4.5649   4.5650   4.7098

          k =-0.2500 0.2500-0.2500 (  1227 PWs)   bands (ev):

    -6.6744  -1.6029   1.6017   1.6017   2.4370   5.0032   5.0033   5.9905

          k =-0.3750 0.3750-0.3750 (  1227 PWs)   bands (ev):

    -6.1569  -2.8196   1.3709   1.3709   2.2135   5.2169   5.2170   7.5569

          k = 0.5000-0.5000 0.5000 (  1224 PWs)   bands (ev):

    -5.8383  -3.3792   1.2889   1.2889   2.1213   5.2482   5.2482   8.4075

          k = 0.0000 0.2500 0.0000 (  1243 PWs)   bands (ev):

    -6.9982  -0.3202   1.6319   1.6319   3.1449   3.9735   4.9697   4.9697

          k =-0.1250 0.3750-0.1250 (  1233 PWs)   bands (ev):

    -6.7059  -1.3824   1.2320   1.3057   3.3985   4.1695   5.5109   5.7609

          k =-0.2500 0.5000-0.2500 (  1230 PWs)   bands (ev):

    -6.2186  -2.5686   0.7894   1.1099   3.2007   4.8101   5.7542   6.6008

          k = 0.6250-0.3750 0.6250 (  1217 PWs)   bands (ev):

    -5.7624  -3.3745   0.4974   1.0973   3.0439   5.1433   5.6796   7.6860

          k = 0.5000-0.2500 0.5000 (  1226 PWs)   bands (ev):

    -5.8839  -3.1791   0.4327   1.2641   3.0308   5.3100   5.4811   7.5763

          k = 0.3750-0.1250 0.3750 (  1232 PWs)   bands (ev):

    -6.3999  -2.1871   0.6369   1.5628   3.1212   5.1384   5.2477   6.3608

          k = 0.2500 0.0000 0.2500 (  1249 PWs)   bands (ev):

    -6.8319  -1.0199   1.1659   1.8642   3.0191   4.6856   4.7206   5.5533

          k = 0.0000 0.5000 0.0000 (  1243 PWs)   bands (ev):

    -6.4892  -1.8402   0.9558   0.9558   3.4393   4.0282   6.2628   6.2628

          k =-0.1250 0.6250-0.1250 (  1236 PWs)   bands (ev):

    -6.0531  -2.7040   0.4765   0.7418   3.5411   4.2352   6.5151   6.7446

          k = 0.7500-0.2500 0.7500 (  1225 PWs)   bands (ev):

    -5.5282  -3.5118  -0.0565   0.7265   3.5366   5.2024   6.5324   6.7227

          k = 0.6250-0.1250 0.6250 (  1223 PWs)   bands (ev):

    -5.4389  -3.6300  -0.3038   0.9104   3.5669   5.8535   6.3809   7.0932

          k = 0.5000 0.0000 0.5000 (  1211 PWs)   bands (ev):

    -5.9261  -2.9489  -0.1078   1.2401   3.5862   5.7770   5.8677   6.3055

          k = 0.0000 0.7500 0.0000 (  1238 PWs)   bands (ev):

    -5.6688  -3.2835   0.4882   0.4882   3.1624   3.7536   7.6563   7.6563

          k = 0.8750-0.1250 0.8750 (  1225 PWs)   bands (ev):

    -5.1283  -3.9713   0.0686   0.4326   3.3556   4.0041   7.6808   7.8995

          k = 0.7500 0.0000 0.7500 (  1234 PWs)   bands (ev):

    -4.9387  -4.1677  -0.3735   0.5874   3.4693   5.3445   7.2732   7.3800

          k = 0.0000-1.0000 0.0000 (  1234 PWs)   bands (ev):

    -4.5807  -4.5807   0.3256   0.3256   3.2838   3.2839   8.4772   8.4772

          k =-0.2500 0.5000 0.0000 (  1228 PWs)   bands (ev):

    -6.3436  -2.2030   0.4990   1.1806   3.8610   4.2375   6.0372   6.1213

          k = 0.6250-0.3750 0.8750 (  1230 PWs)   bands (ev):

    -5.8234  -3.1194   0.0469   0.9171   3.8397   4.9351   6.1420   6.6789

          k = 0.5000-0.2500 0.7500 (  1218 PWs)   bands (ev):

    -5.4860  -3.6107  -0.0932   0.7987   3.7870   5.1525   6.3806   7.2554

          k = 0.7500-0.2500 1.0000 (  1230 PWs)   bands (ev):

    -5.5673  -3.4144   0.1021   0.4647   3.9555   4.2293   6.4457   7.5573

          k = 0.6250-0.1250 0.8750 (  1217 PWs)   bands (ev):

    -5.0801  -4.0027  -0.2671   0.3562   4.1147   5.2902   6.2864   7.2412

          k = 0.5000 0.0000 0.7500 (  1216 PWs)   bands (ev):

    -5.2960  -3.7537  -0.3550   0.5643   4.1932   5.5689   6.1937   7.0127

          k =-0.2500-1.0000 0.0000 (  1222 PWs)   bands (ev):

    -4.5633  -4.5633   0.0837   0.0837   3.9926   3.9926   7.5848   7.5849

          k =-0.5000-1.0000 0.0000 (  1216 PWs)   bands (ev):

    -4.5455  -4.5455  -0.1137  -0.1137   5.1950   5.1950   6.1740   6.1740

     the Fermi energy is     2.0505 ev

!    total energy              =     -22.71559502 Ry
     estimated scf accuracy    <       0.00000017 Ry
     smearing contrib. (-TS)   =       0.00006045 Ry
     internal energy E=F+TS    =     -22.71565547 Ry

     The total energy is F=E-TS. E is the sum of the following terms:
     one-electron contribution =       1.76254336 Ry
     hartree contribution      =       1.59275591 Ry
     xc contribution           =     -11.81810092 Ry
     ewald contribution        =     -14.25285383 Ry

     convergence has been achieved in   4 iterations

     Forces acting on atoms (cartesian axes, Ry/au):

     atom    1 type  1   force =    -0.00000000   -0.00000000   -0.00000000
     atom    2 type  1   force =     0.00000000    0.00000000    0.00000000

     Total force =     0.000000     Total SCF correction =     0.000000

     BFGS Geometry Optimization

     bfgs converged in   1 scf cycles and   0 bfgs steps
     (criteria: energy <  1.0E-04 Ry, force <  1.0E-03 Ry/Bohr)

     End of BFGS Geometry Optimization

     Final energy   =     -22.7155950237 Ry
Begin final coordinates

ATOMIC_POSITIONS (crystal)
Si            0.0000000000        0.0000000000        0.0000000000
Si            0.2500000000        0.2500000000        0.2500000000
End final coordinates



     Writing output data file /home/jesus/Documentos/Nanociencia_DFT/test.save/
 
     init_run     :      0.56s CPU      0.63s WALL (       1 calls)
     electrons    :      4.28s CPU      4.84s WALL (       1 calls)
     forces       :      0.19s CPU      0.23s WALL (       1 calls)

     Called by init_run:
     wfcinit      :      0.17s CPU      0.18s WALL (       1 calls)
     potinit      :      0.07s CPU      0.09s WALL (       1 calls)
     hinit0       :      0.24s CPU      0.24s WALL (       1 calls)

     Called by electrons:
     c_bands      :      2.90s CPU      3.02s WALL (       5 calls)
     sum_band     :      0.87s CPU      1.09s WALL (       5 calls)
     v_of_rho     :      0.30s CPU      0.34s WALL (       5 calls)
     newd         :      0.30s CPU      0.53s WALL (       5 calls)
     mix_rho      :      0.01s CPU      0.01s WALL (       5 calls)

     Called by c_bands:
     init_us_2    :      0.14s CPU      0.15s WALL (     348 calls)
     cegterg      :      2.32s CPU      2.41s WALL (     145 calls)

     Called by *egterg:
     cdiaghg      :      0.07s CPU      0.08s WALL (     544 calls)
     h_psi        :      2.08s CPU      2.16s WALL (     602 calls)
     s_psi        :      0.08s CPU      0.08s WALL (     602 calls)
     g_psi        :      0.01s CPU      0.01s WALL (     428 calls)

     Called by h_psi:
     h_psi:calbec :      0.10s CPU      0.10s WALL (     602 calls)
     vloc_psi     :      1.88s CPU      1.96s WALL (     602 calls)
     add_vuspsi   :      0.08s CPU      0.09s WALL (     602 calls)

     General routines
     calbec       :      0.15s CPU      0.15s WALL (     863 calls)
     fft          :      0.11s CPU      0.11s WALL (      75 calls)
     ffts         :      0.00s CPU      0.00s WALL (      10 calls)
     fftw         :      1.82s CPU      1.90s WALL (    8024 calls)
     interpolate  :      0.01s CPU      0.01s WALL (       5 calls)
 
     Parallel routines
 
     PWSCF        :      5.70s CPU      6.39s WALL

 
   This run was terminated on:  22:34:51  15Mar2021            

=------------------------------------------------------------------------------=
   JOB DONE.
=------------------------------------------------------------------------------=
