
     Program PWSCF v.6.6 starts on 15Mar2021 at 22:34: 7 

     This program is part of the open-source Quantum ESPRESSO suite
     for quantum simulation of materials; please cite
         "P. Giannozzi et al., J. Phys.:Condens. Matter 21 395502 (2009);
         "P. Giannozzi et al., J. Phys.:Condens. Matter 29 465901 (2017);
          URL http://www.quantum-espresso.org", 
     in publications or presentations arising from this work. More details at
     http://www.quantum-espresso.org/quote

     Parallel version (MPI), running on     1 processors

     MPI processes distributed on     1 nodes
     Fft bands division:     nmany     =       1
     Waiting for input...
     Reading input from standard input
Warning: card &CELL ignored
Warning: card   CELL_DYNAMICS='BFGS', ignored
Warning: card   CELL_DOFREE='ALL', ignored
Warning: card / ignored

     Current dimensions of program PWSCF are:
     Max number of different atomic species (ntypx) = 10
     Max number of k-points (npk) =  40000
     Max angular momentum in pseudopotentials (lmaxx) =  3

     Subspace diagonalization in iterative solution of the eigenvalue problem:
     a serial algorithm will be used

 
     G-vector sticks info
     --------------------
     sticks:   dense  smooth     PW     G-vecs:    dense   smooth      PW
     Sum        1003     499    163                20539     7391    1363
 


     bravais-lattice index     =            2
     lattice parameter (alat)  =      10.9604  a.u.
     unit-cell volume          =     329.1703 (a.u.)^3
     number of atoms/cell      =            2
     number of atomic types    =            1
     number of electrons       =         8.00
     number of Kohn-Sham states=            8
     kinetic-energy cutoff     =      30.0000  Ry
     charge density cutoff     =     240.0000  Ry
     convergence threshold     =      1.0E-06
     mixing beta               =       0.7000
     number of iterations used =            8  plain     mixing
     Exchange-correlation= PBE
                           (   1   4   3   4   0   0   0)
     nstep                     =            1


     celldm(1)=  10.960412  celldm(2)=   0.000000  celldm(3)=   0.000000
     celldm(4)=   0.000000  celldm(5)=   0.000000  celldm(6)=   0.000000

     crystal axes: (cart. coord. in units of alat)
               a(1) = (  -0.500000   0.000000   0.500000 )  
               a(2) = (   0.000000   0.500000   0.500000 )  
               a(3) = (  -0.500000   0.500000   0.000000 )  

     reciprocal axes: (cart. coord. in units 2 pi/alat)
               b(1) = ( -1.000000 -1.000000  1.000000 )  
               b(2) = (  1.000000  1.000000  1.000000 )  
               b(3) = ( -1.000000  1.000000 -1.000000 )  


     PseudoPot. # 1 for Si read from file:
     /home/jesus/Documentos/Nanociencia_DFT/pseudopotenciales/Si.pbe-n-rrkjus_psl.1.0.0.UPF
     MD5 check sum: fa25574f73a70a4139f2adfbefec430c
     Pseudo is Ultrasoft + core correction, Zval =  4.0
     Generated using "atomic" code by A. Dal Corso v.6.3
     Using radial grid of 1141 points,  6 beta functions with: 
                l(1) =   0
                l(2) =   0
                l(3) =   1
                l(4) =   1
                l(5) =   2
                l(6) =   2
     Q(r) pseudized with 0 coefficients 


     atomic species   valence    mass     pseudopotential
        Si             4.00    28.08550     Si( 1.00)

     48 Sym. Ops., with inversion, found (24 have fractional translation)



   Cartesian axes

     site n.     atom                  positions (alat units)
         1           Si  tau(   1) = (   0.0000000   0.0000000   0.0000000  )
         2           Si  tau(   2) = (  -0.2500000   0.2500000   0.2500000  )

     number of k points=    29  Methfessel-Paxton smearing, width (Ry)=  0.0100
                       cart. coord. in units 2pi/alat
        k(    1) = (   0.0000000   0.0000000   0.0000000), wk =   0.0039062
        k(    2) = (  -0.1250000   0.1250000  -0.1250000), wk =   0.0312500
        k(    3) = (  -0.2500000   0.2500000  -0.2500000), wk =   0.0312500
        k(    4) = (  -0.3750000   0.3750000  -0.3750000), wk =   0.0312500
        k(    5) = (   0.5000000  -0.5000000   0.5000000), wk =   0.0156250
        k(    6) = (   0.0000000   0.2500000   0.0000000), wk =   0.0234375
        k(    7) = (  -0.1250000   0.3750000  -0.1250000), wk =   0.0937500
        k(    8) = (  -0.2500000   0.5000000  -0.2500000), wk =   0.0937500
        k(    9) = (   0.6250000  -0.3750000   0.6250000), wk =   0.0937500
        k(   10) = (   0.5000000  -0.2500000   0.5000000), wk =   0.0937500
        k(   11) = (   0.3750000  -0.1250000   0.3750000), wk =   0.0937500
        k(   12) = (   0.2500000   0.0000000   0.2500000), wk =   0.0468750
        k(   13) = (   0.0000000   0.5000000   0.0000000), wk =   0.0234375
        k(   14) = (  -0.1250000   0.6250000  -0.1250000), wk =   0.0937500
        k(   15) = (   0.7500000  -0.2500000   0.7500000), wk =   0.0937500
        k(   16) = (   0.6250000  -0.1250000   0.6250000), wk =   0.0937500
        k(   17) = (   0.5000000   0.0000000   0.5000000), wk =   0.0468750
        k(   18) = (   0.0000000   0.7500000   0.0000000), wk =   0.0234375
        k(   19) = (   0.8750000  -0.1250000   0.8750000), wk =   0.0937500
        k(   20) = (   0.7500000   0.0000000   0.7500000), wk =   0.0468750
        k(   21) = (   0.0000000  -1.0000000   0.0000000), wk =   0.0117188
        k(   22) = (  -0.2500000   0.5000000   0.0000000), wk =   0.0937500
        k(   23) = (   0.6250000  -0.3750000   0.8750000), wk =   0.1875000
        k(   24) = (   0.5000000  -0.2500000   0.7500000), wk =   0.0937500
        k(   25) = (   0.7500000  -0.2500000   1.0000000), wk =   0.0937500
        k(   26) = (   0.6250000  -0.1250000   0.8750000), wk =   0.1875000
        k(   27) = (   0.5000000   0.0000000   0.7500000), wk =   0.0937500
        k(   28) = (  -0.2500000  -1.0000000   0.0000000), wk =   0.0468750
        k(   29) = (  -0.5000000  -1.0000000   0.0000000), wk =   0.0234375

     Dense  grid:    20539 G-vectors     FFT dimensions: (  40,  40,  40)

     Smooth grid:     7391 G-vectors     FFT dimensions: (  32,  32,  32)

     Estimated max dynamical RAM per process >      77.63 MB

     Initial potential from superposition of free atoms

     starting charge    7.99888, renormalised to    8.00000
     Starting wfcs are    8 randomized atomic wfcs

     total cpu time spent up to now is        1.5 secs

     Self-consistent Calculation

     iteration #  1     ecut=    30.00 Ry     beta= 0.70
     Davidson diagonalization with overlap
     ethr =  1.00E-02,  avg # of iterations =  3.2

     Threshold (ethr) on eigenvalues was too large:
     Diagonalizing with lowered threshold

     Davidson diagonalization with overlap
     ethr =  4.60E-04,  avg # of iterations =  2.4

     total cpu time spent up to now is        2.8 secs

     total energy              =     -22.81626580 Ry
     estimated scf accuracy    <       0.03994980 Ry

     iteration #  2     ecut=    30.00 Ry     beta= 0.70
     Davidson diagonalization with overlap
     ethr =  4.99E-04,  avg # of iterations =  1.1

     total cpu time spent up to now is        3.5 secs

     total energy              =     -22.81720026 Ry
     estimated scf accuracy    <       0.00228880 Ry

     iteration #  3     ecut=    30.00 Ry     beta= 0.70
     Davidson diagonalization with overlap
     ethr =  2.86E-05,  avg # of iterations =  4.8

     total cpu time spent up to now is        4.5 secs

     total energy              =     -22.81730073 Ry
     estimated scf accuracy    <       0.00002426 Ry

     iteration #  4     ecut=    30.00 Ry     beta= 0.70
     Davidson diagonalization with overlap
     ethr =  3.03E-07,  avg # of iterations =  3.7

     total cpu time spent up to now is        5.4 secs

     End of self-consistent calculation

          k = 0.0000 0.0000 0.0000 (   941 PWs)   bands (ev):

    -6.4006   4.3164   4.3164   4.3164   5.5712   6.7754   6.7754   6.7754

          k =-0.1250 0.1250-0.1250 (   914 PWs)   bands (ev):

    -6.2294   2.6868   4.0807   4.0807   6.0121   7.1246   7.1246   7.7195

          k =-0.2500 0.2500-0.2500 (   917 PWs)   bands (ev):

    -5.7338   0.6583   3.6786   3.6786   5.6327   7.6292   7.6293   9.7573

          k =-0.3750 0.3750-0.3750 (   911 PWs)   bands (ev):

    -5.0092  -1.0391   3.3896   3.3896   5.2984   7.7225   7.7226  11.5243

          k = 0.5000-0.5000 0.5000 (   912 PWs)   bands (ev):

    -4.5259  -1.8532   3.2890   3.2890   5.1780   7.6787   7.6788  11.7223

          k = 0.0000 0.2500 0.0000 (   917 PWs)   bands (ev):

    -6.1715   2.7207   3.6749   3.6749   6.3192   7.0380   7.7005   7.7005

          k =-0.1250 0.3750-0.1250 (   914 PWs)   bands (ev):

    -5.7799   1.1520   3.2269   3.2434   6.3667   7.1612   8.3808   8.7844

          k =-0.2500 0.5000-0.2500 (   908 PWs)   bands (ev):

    -5.1103  -0.5543   2.7016   3.0036   6.2320   7.5234   8.5205   9.4973

          k = 0.6250-0.3750 0.6250 (   911 PWs)   bands (ev):

    -4.4397  -1.7289   2.3277   3.0079   6.0754   7.6412   8.2945  11.0464

          k = 0.5000-0.2500 0.5000 (   914 PWs)   bands (ev):

    -4.6243  -1.4386   2.2013   3.2439   6.1232   7.8131   8.0784  11.3173

          k = 0.3750-0.1250 0.3750 (   913 PWs)   bands (ev):

    -5.3608  -0.0120   2.3819   3.6485   6.3589   7.7919   7.9484   9.7599

          k = 0.2500 0.0000 0.2500 (   915 PWs)   bands (ev):

    -5.9483   1.6208   3.0145   4.0506   6.5159   7.2595   7.3964   8.8076

          k = 0.0000 0.5000 0.0000 (   902 PWs)   bands (ev):

    -5.4932   0.7177   2.7704   2.7704   5.5958   7.2505   9.4333   9.4333

          k =-0.1250 0.6250-0.1250 (   908 PWs)   bands (ev):

    -4.9036  -0.4701   2.1203   2.4966   5.7945   7.1393   9.5341   9.9717

          k = 0.7500-0.2500 0.7500 (   917 PWs)   bands (ev):

    -4.1607  -1.6240   1.3973   2.4897   5.9481   8.4514   9.2806   9.7897

          k = 0.6250-0.1250 0.6250 (   912 PWs)   bands (ev):

    -4.0141  -1.8137   1.0353   2.7468   6.1641   9.1087   9.3855  10.6151

          k = 0.5000 0.0000 0.5000 (   907 PWs)   bands (ev):

    -4.7099  -0.8749   1.2697   3.2012   6.5265   8.6864   8.9607   9.5250

          k = 0.0000 0.7500 0.0000 (   918 PWs)   bands (ev):

    -4.3955  -1.1963   2.1616   2.1616   5.2007   6.0847  11.3627  11.3627

          k = 0.8750-0.1250 0.8750 (   915 PWs)   bands (ev):

    -3.6567  -2.1143   1.5288   2.0938   5.4748   6.3800  11.4896  11.6504

          k = 0.7500 0.0000 0.7500 (   929 PWs)   bands (ev):

    -3.3435  -2.4156   0.8631   2.3053   5.7197   8.2224  10.9189  11.1577

          k = 0.0000-1.0000 0.0000 (   934 PWs)   bands (ev):

    -2.9345  -2.9345   1.9518   1.9518   5.3397   5.3397  12.8079  12.8079

          k =-0.2500 0.5000 0.0000 (   908 PWs)   bands (ev):

    -5.2911   0.1363   2.1146   3.1188   6.6867   7.3757   8.5596   9.2353

          k = 0.6250-0.3750 0.8750 (   906 PWs)   bands (ev):

    -4.5681  -1.1366   1.5554   2.7324   6.9170   7.6095   8.9322   9.7361

          k = 0.5000-0.2500 0.7500 (   920 PWs)   bands (ev):

    -4.0672  -1.8672   1.4105   2.5568   6.8915   7.5276   9.5708  10.8335

          k = 0.7500-0.2500 1.0000 (   903 PWs)   bands (ev):

    -4.2422  -1.3798   1.5792   2.0807   6.2984   6.9627   9.4270  11.3094

          k = 0.6250-0.1250 0.8750 (   914 PWs)   bands (ev):

    -3.5480  -2.1796   1.0345   1.9218   6.6907   8.3817   9.0148  10.8522

          k = 0.5000 0.0000 0.7500 (   906 PWs)   bands (ev):

    -3.8382  -1.8639   0.9050   2.2193   7.0450   8.5274   9.0494  10.5973

          k =-0.2500-1.0000 0.0000 (   920 PWs)   bands (ev):

    -2.8895  -2.8895   1.5468   1.5468   6.3668   6.3668  11.2258  11.2258

          k =-0.5000-1.0000 0.0000 (   932 PWs)   bands (ev):

    -2.8418  -2.8418   1.2274   1.2274   8.5778   8.5779   8.5846   8.5846

     the Fermi energy is     4.4273 ev

!    total energy              =     -22.81730795 Ry
     estimated scf accuracy    <       0.00000007 Ry
     smearing contrib. (-TS)   =       0.00000484 Ry
     internal energy E=F+TS    =     -22.81731278 Ry

     The total energy is F=E-TS. E is the sum of the following terms:
     one-electron contribution =       3.71264133 Ry
     hartree contribution      =       1.28285676 Ry
     xc contribution           =     -12.08552389 Ry
     ewald contribution        =     -15.72728698 Ry

     convergence has been achieved in   4 iterations

     Forces acting on atoms (cartesian axes, Ry/au):

     atom    1 type  1   force =    -0.00000000   -0.00000000   -0.00000000
     atom    2 type  1   force =     0.00000000    0.00000000   -0.00000000

     Total force =     0.000000     Total SCF correction =     0.000000

     BFGS Geometry Optimization

     bfgs converged in   1 scf cycles and   0 bfgs steps
     (criteria: energy <  1.0E-04 Ry, force <  1.0E-03 Ry/Bohr)

     End of BFGS Geometry Optimization

     Final energy   =     -22.8173079463 Ry
Begin final coordinates

ATOMIC_POSITIONS (crystal)
Si            0.0000000000        0.0000000000        0.0000000000
Si            0.2500000000        0.2500000000        0.2500000000
End final coordinates



     Writing output data file /home/jesus/Documentos/Nanociencia_DFT/test.save/
 
     init_run     :      0.56s CPU      0.61s WALL (       1 calls)
     electrons    :      3.64s CPU      3.91s WALL (       1 calls)
     forces       :      0.13s CPU      0.17s WALL (       1 calls)

     Called by init_run:
     wfcinit      :      0.17s CPU      0.18s WALL (       1 calls)
     potinit      :      0.04s CPU      0.05s WALL (       1 calls)
     hinit0       :      0.28s CPU      0.28s WALL (       1 calls)

     Called by electrons:
     c_bands      :      2.57s CPU      2.59s WALL (       5 calls)
     sum_band     :      0.73s CPU      0.87s WALL (       5 calls)
     v_of_rho     :      0.16s CPU      0.17s WALL (       5 calls)
     newd         :      0.25s CPU      0.37s WALL (       5 calls)
     mix_rho      :      0.01s CPU      0.01s WALL (       5 calls)

     Called by c_bands:
     init_us_2    :      0.11s CPU      0.11s WALL (     348 calls)
     cegterg      :      2.11s CPU      2.13s WALL (     145 calls)

     Called by *egterg:
     cdiaghg      :      0.07s CPU      0.07s WALL (     555 calls)
     h_psi        :      1.96s CPU      1.99s WALL (     613 calls)
     s_psi        :      0.05s CPU      0.06s WALL (     613 calls)
     g_psi        :      0.01s CPU      0.01s WALL (     439 calls)

     Called by h_psi:
     h_psi:calbec :      0.08s CPU      0.08s WALL (     613 calls)
     vloc_psi     :      1.81s CPU      1.83s WALL (     613 calls)
     add_vuspsi   :      0.06s CPU      0.06s WALL (     613 calls)

     General routines
     calbec       :      0.11s CPU      0.12s WALL (     874 calls)
     fft          :      0.06s CPU      0.06s WALL (      75 calls)
     ffts         :      0.00s CPU      0.00s WALL (      10 calls)
     fftw         :      1.77s CPU      1.79s WALL (    7812 calls)
     interpolate  :      0.01s CPU      0.01s WALL (       5 calls)
 
     Parallel routines
 
     PWSCF        :      5.20s CPU      5.57s WALL

 
   This run was terminated on:  22:34:12  15Mar2021            

=------------------------------------------------------------------------------=
   JOB DONE.
=------------------------------------------------------------------------------=
