
     Program PWSCF v.6.6 starts on 15Mar2021 at 22:33:26 

     This program is part of the open-source Quantum ESPRESSO suite
     for quantum simulation of materials; please cite
         "P. Giannozzi et al., J. Phys.:Condens. Matter 21 395502 (2009);
         "P. Giannozzi et al., J. Phys.:Condens. Matter 29 465901 (2017);
          URL http://www.quantum-espresso.org", 
     in publications or presentations arising from this work. More details at
     http://www.quantum-espresso.org/quote

     Parallel version (MPI), running on     1 processors

     MPI processes distributed on     1 nodes
     Fft bands division:     nmany     =       1
     Waiting for input...
     Reading input from standard input
Warning: card &CELL ignored
Warning: card   CELL_DYNAMICS='BFGS', ignored
Warning: card   CELL_DOFREE='ALL', ignored
Warning: card / ignored

     Current dimensions of program PWSCF are:
     Max number of different atomic species (ntypx) = 10
     Max number of k-points (npk) =  40000
     Max angular momentum in pseudopotentials (lmaxx) =  3

     Subspace diagonalization in iterative solution of the eigenvalue problem:
     a serial algorithm will be used

 
     G-vector sticks info
     --------------------
     sticks:   dense  smooth     PW     G-vecs:    dense   smooth      PW
     Sum         745     367    121                13323     4645     893
 


     bravais-lattice index     =            2
     lattice parameter (alat)  =       9.4486  a.u.
     unit-cell volume          =     210.8855 (a.u.)^3
     number of atoms/cell      =            2
     number of atomic types    =            1
     number of electrons       =         8.00
     number of Kohn-Sham states=            8
     kinetic-energy cutoff     =      30.0000  Ry
     charge density cutoff     =     240.0000  Ry
     convergence threshold     =      1.0E-06
     mixing beta               =       0.7000
     number of iterations used =            8  plain     mixing
     Exchange-correlation= PBE
                           (   1   4   3   4   0   0   0)
     nstep                     =            1


     celldm(1)=   9.448631  celldm(2)=   0.000000  celldm(3)=   0.000000
     celldm(4)=   0.000000  celldm(5)=   0.000000  celldm(6)=   0.000000

     crystal axes: (cart. coord. in units of alat)
               a(1) = (  -0.500000   0.000000   0.500000 )  
               a(2) = (   0.000000   0.500000   0.500000 )  
               a(3) = (  -0.500000   0.500000   0.000000 )  

     reciprocal axes: (cart. coord. in units 2 pi/alat)
               b(1) = ( -1.000000 -1.000000  1.000000 )  
               b(2) = (  1.000000  1.000000  1.000000 )  
               b(3) = ( -1.000000  1.000000 -1.000000 )  


     PseudoPot. # 1 for Si read from file:
     /home/jesus/Documentos/Nanociencia_DFT/pseudopotenciales/Si.pbe-n-rrkjus_psl.1.0.0.UPF
     MD5 check sum: fa25574f73a70a4139f2adfbefec430c
     Pseudo is Ultrasoft + core correction, Zval =  4.0
     Generated using "atomic" code by A. Dal Corso v.6.3
     Using radial grid of 1141 points,  6 beta functions with: 
                l(1) =   0
                l(2) =   0
                l(3) =   1
                l(4) =   1
                l(5) =   2
                l(6) =   2
     Q(r) pseudized with 0 coefficients 


     atomic species   valence    mass     pseudopotential
        Si             4.00    28.08550     Si( 1.00)

     48 Sym. Ops., with inversion, found (24 have fractional translation)



   Cartesian axes

     site n.     atom                  positions (alat units)
         1           Si  tau(   1) = (   0.0000000   0.0000000   0.0000000  )
         2           Si  tau(   2) = (  -0.2500000   0.2500000   0.2500000  )

     number of k points=    29  Methfessel-Paxton smearing, width (Ry)=  0.0100
                       cart. coord. in units 2pi/alat
        k(    1) = (   0.0000000   0.0000000   0.0000000), wk =   0.0039062
        k(    2) = (  -0.1250000   0.1250000  -0.1250000), wk =   0.0312500
        k(    3) = (  -0.2500000   0.2500000  -0.2500000), wk =   0.0312500
        k(    4) = (  -0.3750000   0.3750000  -0.3750000), wk =   0.0312500
        k(    5) = (   0.5000000  -0.5000000   0.5000000), wk =   0.0156250
        k(    6) = (   0.0000000   0.2500000   0.0000000), wk =   0.0234375
        k(    7) = (  -0.1250000   0.3750000  -0.1250000), wk =   0.0937500
        k(    8) = (  -0.2500000   0.5000000  -0.2500000), wk =   0.0937500
        k(    9) = (   0.6250000  -0.3750000   0.6250000), wk =   0.0937500
        k(   10) = (   0.5000000  -0.2500000   0.5000000), wk =   0.0937500
        k(   11) = (   0.3750000  -0.1250000   0.3750000), wk =   0.0937500
        k(   12) = (   0.2500000   0.0000000   0.2500000), wk =   0.0468750
        k(   13) = (   0.0000000   0.5000000   0.0000000), wk =   0.0234375
        k(   14) = (  -0.1250000   0.6250000  -0.1250000), wk =   0.0937500
        k(   15) = (   0.7500000  -0.2500000   0.7500000), wk =   0.0937500
        k(   16) = (   0.6250000  -0.1250000   0.6250000), wk =   0.0937500
        k(   17) = (   0.5000000   0.0000000   0.5000000), wk =   0.0468750
        k(   18) = (   0.0000000   0.7500000   0.0000000), wk =   0.0234375
        k(   19) = (   0.8750000  -0.1250000   0.8750000), wk =   0.0937500
        k(   20) = (   0.7500000   0.0000000   0.7500000), wk =   0.0468750
        k(   21) = (   0.0000000  -1.0000000   0.0000000), wk =   0.0117188
        k(   22) = (  -0.2500000   0.5000000   0.0000000), wk =   0.0937500
        k(   23) = (   0.6250000  -0.3750000   0.8750000), wk =   0.1875000
        k(   24) = (   0.5000000  -0.2500000   0.7500000), wk =   0.0937500
        k(   25) = (   0.7500000  -0.2500000   1.0000000), wk =   0.0937500
        k(   26) = (   0.6250000  -0.1250000   0.8750000), wk =   0.1875000
        k(   27) = (   0.5000000   0.0000000   0.7500000), wk =   0.0937500
        k(   28) = (  -0.2500000  -1.0000000   0.0000000), wk =   0.0468750
        k(   29) = (  -0.5000000  -1.0000000   0.0000000), wk =   0.0234375

     Dense  grid:    13323 G-vectors     FFT dimensions: (  36,  36,  36)

     Smooth grid:     4645 G-vectors     FFT dimensions: (  24,  24,  24)

     Estimated max dynamical RAM per process >      51.12 MB

     Initial potential from superposition of free atoms

     starting charge    7.99888, renormalised to    8.00000
     Starting wfcs are    8 randomized atomic wfcs

     total cpu time spent up to now is        1.1 secs

     Self-consistent Calculation

     iteration #  1     ecut=    30.00 Ry     beta= 0.70
     Davidson diagonalization with overlap
     ethr =  1.00E-02,  avg # of iterations =  4.8

     Threshold (ethr) on eigenvalues was too large:
     Diagonalizing with lowered threshold

     Davidson diagonalization with overlap
     ethr =  9.48E-04,  avg # of iterations =  1.5

     total cpu time spent up to now is        2.0 secs

     total energy              =     -22.76057786 Ry
     estimated scf accuracy    <       0.08095260 Ry

     iteration #  2     ecut=    30.00 Ry     beta= 0.70
     Davidson diagonalization with overlap
     ethr =  1.01E-03,  avg # of iterations =  1.1

     total cpu time spent up to now is        2.4 secs

     total energy              =     -22.76576202 Ry
     estimated scf accuracy    <       0.00190678 Ry

     iteration #  3     ecut=    30.00 Ry     beta= 0.70
     Davidson diagonalization with overlap
     ethr =  2.38E-05,  avg # of iterations =  4.7

     total cpu time spent up to now is        2.9 secs

     total energy              =     -22.76595472 Ry
     estimated scf accuracy    <       0.00006766 Ry

     iteration #  4     ecut=    30.00 Ry     beta= 0.70
     Davidson diagonalization with overlap
     ethr =  8.46E-07,  avg # of iterations =  3.2

     total cpu time spent up to now is        3.3 secs

     End of self-consistent calculation

          k = 0.0000 0.0000 0.0000 (   561 PWs)   bands (ev):

    -4.7578   9.1091   9.1091   9.1091  11.7306  11.7306  11.7306  15.5172

          k =-0.1250 0.1250-0.1250 (   576 PWs)   bands (ev):

    -4.5068   7.3242   8.7391   8.7391  12.1030  12.2708  12.2708  16.4683

          k =-0.2500 0.2500-0.2500 (   580 PWs)   bands (ev):

    -3.7683   4.5862   8.1788   8.1788  11.9120  12.7517  12.7519  16.3965

          k =-0.3750 0.3750-0.3750 (   595 PWs)   bands (ev):

    -2.6247   2.1203   7.8108   7.8108  11.6301  12.4367  12.4367  17.3871

          k = 0.5000-0.5000 0.5000 (   580 PWs)   bands (ev):

    -1.7199   0.7620   7.6890   7.6890  11.5241  12.2281  12.2281  17.0959

          k = 0.0000 0.2500 0.0000 (   568 PWs)   bands (ev):

    -4.4226   7.9321   8.0434   8.0434  11.0491  13.1982  13.1982  14.6823

          k =-0.1250 0.3750-0.1250 (   580 PWs)   bands (ev):

    -3.8440   5.5473   7.4197   7.6982  11.2417  13.6477  13.7998  14.0495

          k =-0.2500 0.5000-0.2500 (   588 PWs)   bands (ev):

    -2.8179   3.0165   6.9964   7.1199  11.3543  13.3552  13.7787  14.9516

          k = 0.6250-0.3750 0.6250 (   586 PWs)   bands (ev):

    -1.6470   1.1199   6.4334   7.1842  11.3583  13.1384  13.2084  17.2706

          k = 0.5000-0.2500 0.5000 (   585 PWs)   bands (ev):

    -1.9970   1.6209   6.1616   7.5785  11.7536  12.9335  13.1104  17.6765

          k = 0.3750-0.1250 0.3750 (   588 PWs)   bands (ev):

    -3.2059   3.8352   6.2647   8.2037  12.4161  12.9047  13.2436  15.5362

          k = 0.2500 0.0000 0.2500 (   576 PWs)   bands (ev):

    -4.0921   6.2224   6.9792   8.7997  12.3938  12.8153  12.8488  15.7863

          k = 0.0000 0.5000 0.0000 (   576 PWs)   bands (ev):

    -3.4272   5.5757   6.7054   6.7054   9.9376  11.9155  15.6851  15.6851

          k =-0.1250 0.6250-0.1250 (   589 PWs)   bands (ev):

    -2.5439   3.7921   5.7536   6.3270  10.1320  11.7244  16.0674  16.2260

          k = 0.7500-0.2500 0.7500 (   584 PWs)   bands (ev):

    -1.3379   1.8926   4.7069   6.3488  10.2376  13.6403  15.4594  16.1605

          k = 0.6250-0.1250 0.6250 (   583 PWs)   bands (ev):

    -1.0286   1.5072   4.1066   6.7608  10.6769  14.9485  15.1565  17.2187

          k = 0.5000 0.0000 0.5000 (   590 PWs)   bands (ev):

    -2.2026   3.0569   4.3026   7.4794  11.5394  14.3750  14.7897  15.4170

          k = 0.0000 0.7500 0.0000 (   584 PWs)   bands (ev):

    -1.8072   2.9173   5.8382   5.8382   9.2286  10.0520  18.3693  18.3693

          k = 0.8750-0.1250 0.8750 (   594 PWs)   bands (ev):

    -0.6760   1.6011   4.6818   5.7516   9.4580  10.7779  18.3580  18.9127

          k = 0.7500 0.0000 0.7500 (   588 PWs)   bands (ev):

    -0.0052   1.0444   3.4902   6.0771   9.8366  13.3501  17.6259  18.3361

          k = 0.0000-1.0000 0.0000 (   588 PWs)   bands (ev):

     0.3604   0.3604   5.5427   5.5427   9.2098   9.2098  21.4631  21.4634

          k =-0.2500 0.5000 0.0000 (   592 PWs)   bands (ev):

    -3.1140   4.4886   5.6295   7.3566  11.5804  12.9499  13.8739  15.3378

          k = 0.6250-0.3750 0.8750 (   583 PWs)   bands (ev):

    -1.9803   2.4982   5.0157   6.6560  11.9489  12.8935  14.5252  15.8461

          k = 0.5000-0.2500 0.7500 (   578 PWs)   bands (ev):

    -1.0677   1.1992   4.9323   6.3302  11.9947  12.5713  15.6089  17.1162

          k = 0.7500-0.2500 1.0000 (   588 PWs)   bands (ev):

    -1.5382   2.6615   4.8102   5.5316  10.9009  11.4589  15.6497  18.2414

          k = 0.6250-0.1250 0.8750 (   588 PWs)   bands (ev):

    -0.3715   1.4235   3.8759   5.2742  11.3196  13.4506  15.1065  17.4543

          k = 0.5000 0.0000 0.7500 (   586 PWs)   bands (ev):

    -0.8169   1.8620   3.6431   5.7762  11.8960  13.9458  14.8152  16.8317

          k =-0.2500-1.0000 0.0000 (   586 PWs)   bands (ev):

     0.5036   0.5036   4.7024   4.7024  10.8121  10.8121  18.0004  18.0004

          k =-0.5000-1.0000 0.0000 (   604 PWs)   bands (ev):

     0.6741   0.6741   4.0634   4.0634  13.3286  13.3287  14.8958  14.8958

     the Fermi energy is     9.1381 ev

!    total energy              =     -22.76596421 Ry
     estimated scf accuracy    <       0.00000013 Ry
     smearing contrib. (-TS)   =      -0.00002082 Ry
     internal energy E=F+TS    =     -22.76594340 Ry

     The total energy is F=E-TS. E is the sum of the following terms:
     one-electron contribution =       7.22688450 Ry
     hartree contribution      =       0.88983424 Ry
     xc contribution           =     -12.63900924 Ry
     ewald contribution        =     -18.24365290 Ry

     convergence has been achieved in   4 iterations

     Forces acting on atoms (cartesian axes, Ry/au):

     atom    1 type  1   force =    -0.00000000   -0.00000000   -0.00000000
     atom    2 type  1   force =     0.00000000    0.00000000    0.00000000

     Total force =     0.000000     Total SCF correction =     0.000000

     BFGS Geometry Optimization

     bfgs converged in   1 scf cycles and   0 bfgs steps
     (criteria: energy <  1.0E-04 Ry, force <  1.0E-03 Ry/Bohr)

     End of BFGS Geometry Optimization

     Final energy   =     -22.7659642106 Ry
Begin final coordinates

ATOMIC_POSITIONS (crystal)
Si            0.0000000000        0.0000000000        0.0000000000
Si            0.2500000000        0.2500000000        0.2500000000
End final coordinates



     Writing output data file /home/jesus/Documentos/Nanociencia_DFT/test.save/
 
     init_run     :      0.39s CPU      0.42s WALL (       1 calls)
     electrons    :      2.05s CPU      2.25s WALL (       1 calls)
     forces       :      0.09s CPU      0.10s WALL (       1 calls)

     Called by init_run:
     wfcinit      :      0.09s CPU      0.10s WALL (       1 calls)
     potinit      :      0.03s CPU      0.03s WALL (       1 calls)
     hinit0       :      0.23s CPU      0.23s WALL (       1 calls)

     Called by electrons:
     c_bands      :      1.45s CPU      1.49s WALL (       5 calls)
     sum_band     :      0.40s CPU      0.48s WALL (       5 calls)
     v_of_rho     :      0.10s CPU      0.11s WALL (       5 calls)
     newd         :      0.13s CPU      0.22s WALL (       5 calls)
     mix_rho      :      0.01s CPU      0.01s WALL (       5 calls)

     Called by c_bands:
     init_us_2    :      0.06s CPU      0.07s WALL (     348 calls)
     cegterg      :      1.19s CPU      1.22s WALL (     145 calls)

     Called by *egterg:
     cdiaghg      :      0.06s CPU      0.06s WALL (     557 calls)
     h_psi        :      1.08s CPU      1.11s WALL (     615 calls)
     s_psi        :      0.03s CPU      0.03s WALL (     615 calls)
     g_psi        :      0.00s CPU      0.00s WALL (     441 calls)

     Called by h_psi:
     h_psi:calbec :      0.04s CPU      0.04s WALL (     615 calls)
     vloc_psi     :      1.00s CPU      1.03s WALL (     615 calls)
     add_vuspsi   :      0.03s CPU      0.03s WALL (     615 calls)

     General routines
     calbec       :      0.06s CPU      0.06s WALL (     876 calls)
     fft          :      0.04s CPU      0.04s WALL (      75 calls)
     ffts         :      0.00s CPU      0.00s WALL (      10 calls)
     fftw         :      1.06s CPU      1.09s WALL (    7852 calls)
     interpolate  :      0.00s CPU      0.00s WALL (       5 calls)
 
     Parallel routines
 
     PWSCF        :      3.16s CPU      3.44s WALL

 
   This run was terminated on:  22:33:29  15Mar2021            

=------------------------------------------------------------------------------=
   JOB DONE.
=------------------------------------------------------------------------------=
