
     Program PWSCF v.6.6 starts on 15Mar2021 at 22:34:19 

     This program is part of the open-source Quantum ESPRESSO suite
     for quantum simulation of materials; please cite
         "P. Giannozzi et al., J. Phys.:Condens. Matter 21 395502 (2009);
         "P. Giannozzi et al., J. Phys.:Condens. Matter 29 465901 (2017);
          URL http://www.quantum-espresso.org", 
     in publications or presentations arising from this work. More details at
     http://www.quantum-espresso.org/quote

     Parallel version (MPI), running on     1 processors

     MPI processes distributed on     1 nodes
     Fft bands division:     nmany     =       1
     Waiting for input...
     Reading input from standard input
Warning: card &CELL ignored
Warning: card   CELL_DYNAMICS='BFGS', ignored
Warning: card   CELL_DOFREE='ALL', ignored
Warning: card / ignored

     Current dimensions of program PWSCF are:
     Max number of different atomic species (ntypx) = 10
     Max number of k-points (npk) =  40000
     Max angular momentum in pseudopotentials (lmaxx) =  3

     Subspace diagonalization in iterative solution of the eigenvalue problem:
     a serial algorithm will be used

 
     G-vector sticks info
     --------------------
     sticks:   dense  smooth     PW     G-vecs:    dense   smooth      PW
     Sum        1069     517    163                22995     7991    1459
 


     bravais-lattice index     =            2
     lattice parameter (alat)  =      11.3384  a.u.
     unit-cell volume          =     364.4101 (a.u.)^3
     number of atoms/cell      =            2
     number of atomic types    =            1
     number of electrons       =         8.00
     number of Kohn-Sham states=            8
     kinetic-energy cutoff     =      30.0000  Ry
     charge density cutoff     =     240.0000  Ry
     convergence threshold     =      1.0E-06
     mixing beta               =       0.7000
     number of iterations used =            8  plain     mixing
     Exchange-correlation= PBE
                           (   1   4   3   4   0   0   0)
     nstep                     =            1


     celldm(1)=  11.338357  celldm(2)=   0.000000  celldm(3)=   0.000000
     celldm(4)=   0.000000  celldm(5)=   0.000000  celldm(6)=   0.000000

     crystal axes: (cart. coord. in units of alat)
               a(1) = (  -0.500000   0.000000   0.500000 )  
               a(2) = (   0.000000   0.500000   0.500000 )  
               a(3) = (  -0.500000   0.500000   0.000000 )  

     reciprocal axes: (cart. coord. in units 2 pi/alat)
               b(1) = ( -1.000000 -1.000000  1.000000 )  
               b(2) = (  1.000000  1.000000  1.000000 )  
               b(3) = ( -1.000000  1.000000 -1.000000 )  


     PseudoPot. # 1 for Si read from file:
     /home/jesus/Documentos/Nanociencia_DFT/pseudopotenciales/Si.pbe-n-rrkjus_psl.1.0.0.UPF
     MD5 check sum: fa25574f73a70a4139f2adfbefec430c
     Pseudo is Ultrasoft + core correction, Zval =  4.0
     Generated using "atomic" code by A. Dal Corso v.6.3
     Using radial grid of 1141 points,  6 beta functions with: 
                l(1) =   0
                l(2) =   0
                l(3) =   1
                l(4) =   1
                l(5) =   2
                l(6) =   2
     Q(r) pseudized with 0 coefficients 


     atomic species   valence    mass     pseudopotential
        Si             4.00    28.08550     Si( 1.00)

     48 Sym. Ops., with inversion, found (24 have fractional translation)



   Cartesian axes

     site n.     atom                  positions (alat units)
         1           Si  tau(   1) = (   0.0000000   0.0000000   0.0000000  )
         2           Si  tau(   2) = (  -0.2500000   0.2500000   0.2500000  )

     number of k points=    29  Methfessel-Paxton smearing, width (Ry)=  0.0100
                       cart. coord. in units 2pi/alat
        k(    1) = (   0.0000000   0.0000000   0.0000000), wk =   0.0039062
        k(    2) = (  -0.1250000   0.1250000  -0.1250000), wk =   0.0312500
        k(    3) = (  -0.2500000   0.2500000  -0.2500000), wk =   0.0312500
        k(    4) = (  -0.3750000   0.3750000  -0.3750000), wk =   0.0312500
        k(    5) = (   0.5000000  -0.5000000   0.5000000), wk =   0.0156250
        k(    6) = (   0.0000000   0.2500000   0.0000000), wk =   0.0234375
        k(    7) = (  -0.1250000   0.3750000  -0.1250000), wk =   0.0937500
        k(    8) = (  -0.2500000   0.5000000  -0.2500000), wk =   0.0937500
        k(    9) = (   0.6250000  -0.3750000   0.6250000), wk =   0.0937500
        k(   10) = (   0.5000000  -0.2500000   0.5000000), wk =   0.0937500
        k(   11) = (   0.3750000  -0.1250000   0.3750000), wk =   0.0937500
        k(   12) = (   0.2500000   0.0000000   0.2500000), wk =   0.0468750
        k(   13) = (   0.0000000   0.5000000   0.0000000), wk =   0.0234375
        k(   14) = (  -0.1250000   0.6250000  -0.1250000), wk =   0.0937500
        k(   15) = (   0.7500000  -0.2500000   0.7500000), wk =   0.0937500
        k(   16) = (   0.6250000  -0.1250000   0.6250000), wk =   0.0937500
        k(   17) = (   0.5000000   0.0000000   0.5000000), wk =   0.0468750
        k(   18) = (   0.0000000   0.7500000   0.0000000), wk =   0.0234375
        k(   19) = (   0.8750000  -0.1250000   0.8750000), wk =   0.0937500
        k(   20) = (   0.7500000   0.0000000   0.7500000), wk =   0.0468750
        k(   21) = (   0.0000000  -1.0000000   0.0000000), wk =   0.0117188
        k(   22) = (  -0.2500000   0.5000000   0.0000000), wk =   0.0937500
        k(   23) = (   0.6250000  -0.3750000   0.8750000), wk =   0.1875000
        k(   24) = (   0.5000000  -0.2500000   0.7500000), wk =   0.0937500
        k(   25) = (   0.7500000  -0.2500000   1.0000000), wk =   0.0937500
        k(   26) = (   0.6250000  -0.1250000   0.8750000), wk =   0.1875000
        k(   27) = (   0.5000000   0.0000000   0.7500000), wk =   0.0937500
        k(   28) = (  -0.2500000  -1.0000000   0.0000000), wk =   0.0468750
        k(   29) = (  -0.5000000  -1.0000000   0.0000000), wk =   0.0234375

     Dense  grid:    22995 G-vectors     FFT dimensions: (  40,  40,  40)

     Smooth grid:     7991 G-vectors     FFT dimensions: (  32,  32,  32)

     Estimated max dynamical RAM per process >      86.19 MB

     Initial potential from superposition of free atoms

     starting charge    7.99888, renormalised to    8.00000
     Starting wfcs are    8 randomized atomic wfcs

     total cpu time spent up to now is        1.2 secs

     Self-consistent Calculation

     iteration #  1     ecut=    30.00 Ry     beta= 0.70
     Davidson diagonalization with overlap
     ethr =  1.00E-02,  avg # of iterations =  3.0

     Threshold (ethr) on eigenvalues was too large:
     Diagonalizing with lowered threshold

     Davidson diagonalization with overlap
     ethr =  3.88E-04,  avg # of iterations =  2.4

     total cpu time spent up to now is        2.7 secs

     total energy              =     -22.78785000 Ry
     estimated scf accuracy    <       0.03356692 Ry

     iteration #  2     ecut=    30.00 Ry     beta= 0.70
     Davidson diagonalization with overlap
     ethr =  4.20E-04,  avg # of iterations =  1.0

     total cpu time spent up to now is        3.3 secs

     total energy              =     -22.78838872 Ry
     estimated scf accuracy    <       0.00224786 Ry

     iteration #  3     ecut=    30.00 Ry     beta= 0.70
     Davidson diagonalization with overlap
     ethr =  2.81E-05,  avg # of iterations =  4.1

     total cpu time spent up to now is        4.1 secs

     total energy              =     -22.78847681 Ry
     estimated scf accuracy    <       0.00001336 Ry

     iteration #  4     ecut=    30.00 Ry     beta= 0.70
     Davidson diagonalization with overlap
     ethr =  1.67E-07,  avg # of iterations =  4.6

     total cpu time spent up to now is        4.9 secs

     End of self-consistent calculation

          k = 0.0000 0.0000 0.0000 (   965 PWs)   bands (ev):

    -6.6885   3.4730   3.4730   3.4730   3.7745   5.8617   5.8617   5.8617

          k =-0.1250 0.1250-0.1250 (   989 PWs)   bands (ev):

    -6.5329   1.7229   3.2615   3.2615   4.6445   6.1764   6.1764   6.5260

          k =-0.2500 0.2500-0.2500 (  1001 PWs)   bands (ev):

    -6.0841  -0.1311   2.8932   2.8932   4.4231   6.6628   6.6629   8.3027

          k =-0.3750 0.3750-0.3750 (  1014 PWs)   bands (ev):

    -5.4366  -1.6654   2.6244   2.6244   4.1280   6.8106   6.8107  10.1112

          k = 0.5000-0.5000 0.5000 (  1008 PWs)   bands (ev):

    -5.0177  -2.3859   2.5302   2.5302   4.0171   6.7967   6.7967  10.6237

          k = 0.0000 0.2500 0.0000 (   994 PWs)   bands (ev):

    -6.4800   1.6625   2.9046   2.9046   5.4500   5.4855   6.6882   6.6883

          k =-0.1250 0.3750-0.1250 (  1002 PWs)   bands (ev):

    -6.1247   0.2587   2.4663   2.5115   5.3776   5.9230   7.3218   7.6847

          k =-0.2500 0.5000-0.2500 (  1004 PWs)   bands (ev):

    -5.5224  -1.2673   1.9705   2.2868   5.1257   6.5014   7.5109   8.4668

          k = 0.6250-0.3750 0.6250 (  1015 PWs)   bands (ev):

    -4.9342  -2.3075   1.6277   2.2838   4.9506   6.7203   7.3449   9.8489

          k = 0.5000-0.2500 0.5000 (  1016 PWs)   bands (ev):

    -5.0940  -2.0527   1.5253   2.4934   4.9684   6.8977   7.1347   9.9645

          k = 0.3750-0.1250 0.3750 (  1004 PWs)   bands (ev):

    -5.7473  -0.7822   1.7173   2.8585   5.1494   6.8172   6.9624   8.4911

          k = 0.2500 0.0000 0.2500 (   997 PWs)   bands (ev):

    -6.2776   0.6948   2.3173   3.2235   5.1939   6.3076   6.4041   7.5510

          k = 0.0000 0.5000 0.0000 (   998 PWs)   bands (ev):

    -5.8634  -0.2082   2.0841   2.0841   4.7981   6.1221   8.2637   8.2637

          k =-0.1250 0.6250-0.1250 (  1018 PWs)   bands (ev):

    -5.3300  -1.2823   1.4966   1.8318   4.9734   6.1232   8.3754   8.7931

          k = 0.7500-0.2500 0.7500 (  1014 PWs)   bands (ev):

    -4.6692  -2.3076   0.8423   1.8213   5.0887   7.2819   8.2190   8.6790

          k = 0.6250-0.1250 0.6250 (  1007 PWs)   bands (ev):

    -4.5455  -2.4692   0.5240   2.0508   5.2399   7.8970   8.2932   9.3782

          k = 0.5000 0.0000 0.5000 (  1019 PWs)   bands (ev):

    -5.1620  -1.6262   0.7474   2.4584   5.4714   7.6157   7.8370   8.2913

          k = 0.0000 0.7500 0.0000 (  1026 PWs)   bands (ev):

    -4.8668  -1.9616   1.5267   1.5267   4.4518   5.2650  10.0059  10.0059

          k = 0.8750-0.1250 0.8750 (  1009 PWs)   bands (ev):

    -4.2011  -2.7981   0.9769   1.4632   4.7074   5.5263  10.0683  10.2901

          k = 0.7500 0.0000 0.7500 (  1011 PWs)   bands (ev):

    -3.9376  -3.0588   0.3976   1.6536   4.9120   7.1991   9.6239   9.6855

          k = 0.0000-1.0000 0.0000 (   998 PWs)   bands (ev):

    -3.5414  -3.5414   1.3341   1.3341   4.5959   4.5959  11.1995  11.1995

          k =-0.2500 0.5000 0.0000 (  1009 PWs)   bands (ev):

    -5.6822  -0.7063   1.5033   2.3842   5.7822   6.0683   7.6693   8.0888

          k = 0.6250-0.3750 0.8750 (  1017 PWs)   bands (ev):

    -5.0347  -1.8508   0.9785   2.0458   5.8148   6.6222   7.8948   8.6258

          k = 0.5000-0.2500 0.7500 (  1010 PWs)   bands (ev):

    -4.5973  -2.4896   0.8319   1.8927   5.7530   6.6728   8.3858   9.5248

          k = 0.7500-0.2500 1.0000 (  1026 PWs)   bands (ev):

    -4.7333  -2.1267   1.0197   1.4708   5.4389   6.0104   8.2902   9.9376

          k = 0.6250-0.1250 0.8750 (  1015 PWs)   bands (ev):

    -4.1178  -2.8494   0.5424   1.3310   5.7730   7.2939   7.9632   9.5204

          k = 0.5000 0.0000 0.7500 (  1013 PWs)   bands (ev):

    -4.3806  -2.5569   0.4288   1.5943   6.0368   7.4646   7.9704   9.2865

          k =-0.2500-1.0000 0.0000 (  1012 PWs)   bands (ev):

    -3.5083  -3.5083   0.9941   0.9941   5.5102   5.5102   9.8873   9.8873

          k =-0.5000-1.0000 0.0000 (  1036 PWs)   bands (ev):

    -3.4738  -3.4738   0.7228   0.7228   7.3420   7.3420   7.7005   7.7005

     the Fermi energy is     3.5868 ev

!    total energy              =     -22.78848485 Ry
     estimated scf accuracy    <       0.00000009 Ry
     smearing contrib. (-TS)   =       0.00000934 Ry
     internal energy E=F+TS    =     -22.78849419 Ry

     The total energy is F=E-TS. E is the sum of the following terms:
     one-electron contribution =       3.01525469 Ry
     hartree contribution      =       1.38360476 Ry
     xc contribution           =     -11.98430956 Ry
     ewald contribution        =     -15.20304408 Ry

     convergence has been achieved in   4 iterations

     Forces acting on atoms (cartesian axes, Ry/au):

     atom    1 type  1   force =    -0.00000000    0.00000000   -0.00000000
     atom    2 type  1   force =    -0.00000000   -0.00000000    0.00000000

     Total force =     0.000000     Total SCF correction =     0.000000

     BFGS Geometry Optimization

     bfgs converged in   1 scf cycles and   0 bfgs steps
     (criteria: energy <  1.0E-04 Ry, force <  1.0E-03 Ry/Bohr)

     End of BFGS Geometry Optimization

     Final energy   =     -22.7884848501 Ry
Begin final coordinates

ATOMIC_POSITIONS (crystal)
Si            0.0000000000        0.0000000000        0.0000000000
Si            0.2500000000        0.2500000000        0.2500000000
End final coordinates



     Writing output data file /home/jesus/Documentos/Nanociencia_DFT/test.save/
 
     init_run     :      0.49s CPU      0.55s WALL (       1 calls)
     electrons    :      3.44s CPU      3.74s WALL (       1 calls)
     forces       :      0.15s CPU      0.17s WALL (       1 calls)

     Called by init_run:
     wfcinit      :      0.17s CPU      0.17s WALL (       1 calls)
     potinit      :      0.04s CPU      0.04s WALL (       1 calls)
     hinit0       :      0.23s CPU      0.23s WALL (       1 calls)

     Called by electrons:
     c_bands      :      2.48s CPU      2.50s WALL (       5 calls)
     sum_band     :      0.64s CPU      0.81s WALL (       5 calls)
     v_of_rho     :      0.15s CPU      0.15s WALL (       5 calls)
     newd         :      0.23s CPU      0.38s WALL (       5 calls)
     mix_rho      :      0.01s CPU      0.01s WALL (       5 calls)

     Called by c_bands:
     init_us_2    :      0.11s CPU      0.11s WALL (     348 calls)
     cegterg      :      2.00s CPU      2.02s WALL (     145 calls)

     Called by *egterg:
     cdiaghg      :      0.07s CPU      0.07s WALL (     555 calls)
     h_psi        :      1.85s CPU      1.87s WALL (     613 calls)
     s_psi        :      0.05s CPU      0.05s WALL (     613 calls)
     g_psi        :      0.01s CPU      0.01s WALL (     439 calls)

     Called by h_psi:
     h_psi:calbec :      0.08s CPU      0.08s WALL (     613 calls)
     vloc_psi     :      1.70s CPU      1.72s WALL (     613 calls)
     add_vuspsi   :      0.06s CPU      0.06s WALL (     613 calls)

     General routines
     calbec       :      0.11s CPU      0.12s WALL (     874 calls)
     fft          :      0.05s CPU      0.05s WALL (      75 calls)
     ffts         :      0.00s CPU      0.00s WALL (      10 calls)
     fftw         :      1.68s CPU      1.70s WALL (    7874 calls)
     interpolate  :      0.00s CPU      0.01s WALL (       5 calls)
 
     Parallel routines
 
     PWSCF        :      4.73s CPU      5.15s WALL

 
   This run was terminated on:  22:34:24  15Mar2021            

=------------------------------------------------------------------------------=
   JOB DONE.
=------------------------------------------------------------------------------=
