
     Program PROJWFC v.6.6 starts on 18Mar2021 at 23:50:25 

     This program is part of the open-source Quantum ESPRESSO suite
     for quantum simulation of materials; please cite
         "P. Giannozzi et al., J. Phys.:Condens. Matter 21 395502 (2009);
         "P. Giannozzi et al., J. Phys.:Condens. Matter 29 465901 (2017);
          URL http://www.quantum-espresso.org", 
     in publications or presentations arising from this work. More details at
     http://www.quantum-espresso.org/quote

     Parallel version (MPI), running on     1 processors

     MPI processes distributed on     1 nodes
     Fft bands division:     nmany     =       1

     Reading xml data from directory:

     /home/jesus/Documentos/Nanociencia_DFT/test.save/

     IMPORTANT: XC functional enforced from input :
     Exchange-correlation= PBE
                           (   1   4   3   4   0   0   0)
     Any further DFT definition will be discarded
     Please, verify this is what you really want

 
     G-vector sticks info
     --------------------
     sticks:   dense  smooth     PW     G-vecs:    dense   smooth      PW
     Sum         889     439    139                66219    23461    3865
 

     Gaussian broadening (read from input): ngauss,degauss=   1    0.010000


     Calling projwave .... 
 
  Problem Sizes 
  natomwfc =            8
  nbnd     =            8
  nkstot   =          888
  npwx     =         2963
  nkb      =           36
 

     Atomic states used for projection
     (read from pseudopotential files):

     state #   1: atom   1 (Si ), wfc  1 (l=0 m= 1)
     state #   2: atom   1 (Si ), wfc  2 (l=1 m= 1)
     state #   3: atom   1 (Si ), wfc  2 (l=1 m= 2)
     state #   4: atom   1 (Si ), wfc  2 (l=1 m= 3)
     state #   5: atom   2 (Si ), wfc  1 (l=0 m= 1)
     state #   6: atom   2 (Si ), wfc  2 (l=1 m= 1)
     state #   7: atom   2 (Si ), wfc  2 (l=1 m= 2)
     state #   8: atom   2 (Si ), wfc  2 (l=1 m= 3)

 k =   0.0000000000  0.0000000000  0.0000000000
==== e(   1) =   -12.74442 eV ==== 
     psi = 0.483*[#   1]+0.482*[#   5]+0.014*[#   2]+0.014*[#   6]
    |psi|^2 = 0.994
==== e(   2) =    -4.92311 eV ==== 
     psi = 0.438*[#   2]+0.438*[#   6]+0.051*[#   1]+0.051*[#   5]
    |psi|^2 = 0.979
==== e(   3) =    -2.93928 eV ==== 
     psi = 0.245*[#   3]+0.245*[#   4]+0.245*[#   7]+0.245*[#   8]
    |psi|^2 = 0.978
==== e(   4) =    -2.93928 eV ==== 
     psi = 0.245*[#   3]+0.245*[#   4]+0.245*[#   7]+0.245*[#   8]
    |psi|^2 = 0.978
==== e(   5) =     0.07228 eV ==== 
     psi = 0.435*[#   1]+0.435*[#   5]+0.044*[#   2]+0.044*[#   6]
    |psi|^2 = 0.957
==== e(   6) =     0.70456 eV ==== 
     psi = 0.245*[#   2]+0.245*[#   6]+0.013*[#   1]+0.013*[#   5]
    |psi|^2 = 0.516
==== e(   7) =     1.26244 eV ==== 
     psi = 0.226*[#   3]+0.226*[#   4]+0.226*[#   7]+0.226*[#   8]
    |psi|^2 = 0.902
==== e(   8) =     1.26244 eV ==== 
     psi = 0.226*[#   3]+0.226*[#   4]+0.226*[#   7]+0.226*[#   8]
    |psi|^2 = 0.902

 k =   0.0000000000  0.0164957220  0.0000000000
==== e(   1) =   -12.74206 eV ==== 
     psi = 0.482*[#   1]+0.482*[#   5]+0.014*[#   2]+0.014*[#   6]
    |psi|^2 = 0.994
==== e(   2) =    -4.92145 eV ==== 
     psi = 0.438*[#   2]+0.438*[#   6]+0.051*[#   1]+0.051*[#   5]
    |psi|^2 = 0.979
==== e(   3) =    -2.96132 eV ==== 
     psi = 0.243*[#   3]+0.243*[#   4]+0.243*[#   7]+0.243*[#   8]+0.003*[#   1]
          +0.003*[#   5]
    |psi|^2 = 0.978
==== e(   4) =    -2.94383 eV ==== 
     psi = 0.245*[#   3]+0.245*[#   4]+0.245*[#   7]+0.245*[#   8]
    |psi|^2 = 0.978
==== e(   5) =     0.09193 eV ==== 
     psi = 0.431*[#   1]+0.431*[#   5]+0.044*[#   2]+0.044*[#   6]+0.002*[#   3]
          +0.002*[#   4]+0.002*[#   7]+0.002*[#   8]
    |psi|^2 = 0.957
==== e(   6) =     0.70615 eV ==== 
     psi = 0.245*[#   2]+0.245*[#   6]+0.013*[#   1]+0.013*[#   5]
    |psi|^2 = 0.517
==== e(   7) =     1.26067 eV ==== 
     psi = 0.225*[#   3]+0.225*[#   4]+0.225*[#   7]+0.225*[#   8]
    |psi|^2 = 0.902
==== e(   8) =     1.27150 eV ==== 
     psi = 0.226*[#   3]+0.226*[#   4]+0.226*[#   7]+0.226*[#   8]
    |psi|^2 = 0.902

 k =   0.0000000000  0.0329914440  0.0000000000
==== e(   1) =   -12.73497 eV ==== 
     psi = 0.480*[#   1]+0.480*[#   5]+0.014*[#   2]+0.014*[#   6]+0.001*[#   3]
          +0.001*[#   4]+0.001*[#   7]+0.001*[#   8]
    |psi|^2 = 0.994
==== e(   2) =    -4.91651 eV ==== 
     psi = 0.437*[#   2]+0.437*[#   6]+0.052*[#   1]+0.052*[#   5]
    |psi|^2 = 0.979
==== e(   3) =    -3.02539 eV ==== 
     psi = 0.238*[#   3]+0.238*[#   4]+0.238*[#   7]+0.238*[#   8]+0.010*[#   1]
          +0.010*[#   5]+0.003*[#   2]+0.003*[#   6]
    |psi|^2 = 0.978
==== e(   4) =    -2.95733 eV ==== 
     psi = 0.245*[#   3]+0.245*[#   4]+0.245*[#   7]+0.245*[#   8]
    |psi|^2 = 0.978
==== e(   5) =     0.14805 eV ==== 
     psi = 0.423*[#   1]+0.423*[#   5]+0.043*[#   2]+0.043*[#   6]+0.006*[#   3]
          +0.006*[#   4]+0.006*[#   7]+0.006*[#   8]
    |psi|^2 = 0.957
==== e(   6) =     0.71089 eV ==== 
     psi = 0.246*[#   2]+0.246*[#   6]+0.013*[#   1]+0.013*[#   5]
    |psi|^2 = 0.518
==== e(   7) =     1.25646 eV ==== 
     psi = 0.224*[#   3]+0.224*[#   4]+0.224*[#   7]+0.224*[#   8]+0.002*[#   1]
          +0.002*[#   5]
    |psi|^2 = 0.901
==== e(   8) =     1.29856 eV ==== 
     psi = 0.225*[#   3]+0.225*[#   4]+0.225*[#   7]+0.225*[#   8]
    |psi|^2 = 0.901

 k =   0.0000000000  0.0494871659  0.0000000000
==== e(   1) =   -12.72316 eV ==== 
     psi = 0.478*[#   1]+0.478*[#   5]+0.014*[#   2]+0.014*[#   6]+0.002*[#   3]
          +0.002*[#   4]+0.002*[#   7]+0.002*[#   8]
    |psi|^2 = 0.994
==== e(   2) =    -4.90849 eV ==== 
     psi = 0.435*[#   2]+0.435*[#   6]+0.054*[#   1]+0.054*[#   5]
    |psi|^2 = 0.979
==== e(   3) =    -3.12611 eV ==== 
     psi = 0.231*[#   3]+0.231*[#   4]+0.231*[#   7]+0.231*[#   8]+0.021*[#   1]
          +0.021*[#   5]+0.006*[#   2]+0.006*[#   6]
    |psi|^2 = 0.979
==== e(   4) =    -2.97939 eV ==== 
     psi = 0.245*[#   3]+0.245*[#   4]+0.245*[#   7]+0.245*[#   8]
    |psi|^2 = 0.979
==== e(   5) =     0.23244 eV ==== 
     psi = 0.409*[#   1]+0.409*[#   5]+0.041*[#   2]+0.041*[#   6]+0.014*[#   3]
          +0.014*[#   4]+0.014*[#   7]+0.014*[#   8]
    |psi|^2 = 0.956
==== e(   6) =     0.71868 eV ==== 
     psi = 0.248*[#   2]+0.248*[#   6]+0.013*[#   1]+0.013*[#   5]
    |psi|^2 = 0.522
==== e(   7) =     1.25327 eV ==== 
     psi = 0.221*[#   3]+0.221*[#   4]+0.221*[#   7]+0.221*[#   8]+0.007*[#   1]
          +0.007*[#   5]
    |psi|^2 = 0.900
==== e(   8) =     1.34322 eV ==== 
     psi = 0.225*[#   3]+0.225*[#   4]+0.225*[#   7]+0.225*[#   8]
    |psi|^2 = 0.900

 k =   0.0000000000  0.0659828879  0.0000000000
==== e(   1) =   -12.70665 eV ==== 
     psi = 0.474*[#   1]+0.474*[#   5]+0.014*[#   2]+0.014*[#   6]+0.004*[#   3]
          +0.004*[#   4]+0.004*[#   7]+0.004*[#   8]
    |psi|^2 = 0.993
==== e(   2) =    -4.89776 eV ==== 
     psi = 0.432*[#   2]+0.432*[#   6]+0.056*[#   1]+0.056*[#   5]
    |psi|^2 = 0.979
==== e(   3) =    -3.25630 eV ==== 
     psi = 0.223*[#   3]+0.223*[#   4]+0.223*[#   7]+0.223*[#   8]+0.032*[#   1]
          +0.032*[#   5]+0.011*[#   2]+0.011*[#   6]
    |psi|^2 = 0.979
==== e(   4) =    -3.00941 eV ==== 
     psi = 0.245*[#   3]+0.245*[#   4]+0.245*[#   7]+0.245*[#   8]
    |psi|^2 = 0.979
==== e(   5) =     0.33226 eV ==== 
     psi = 0.389*[#   1]+0.389*[#   5]+0.039*[#   2]+0.039*[#   6]+0.025*[#   3]
          +0.025*[#   4]+0.025*[#   7]+0.025*[#   8]
    |psi|^2 = 0.954
==== e(   6) =     0.72936 eV ==== 
     psi = 0.250*[#   2]+0.250*[#   6]+0.013*[#   1]+0.013*[#   5]
    |psi|^2 = 0.526
==== e(   7) =     1.25811 eV ==== 
     psi = 0.216*[#   3]+0.216*[#   4]+0.216*[#   7]+0.216*[#   8]+0.016*[#   1]
          +0.016*[#   5]
    |psi|^2 = 0.898
==== e(   8) =     1.40486 eV ==== 
     psi = 0.224*[#   3]+0.224*[#   4]+0.225*[#   7]+0.225*[#   8]
    |psi|^2 = 0.898

 k =   0.0000000000  0.0824786099  0.0000000000
==== e(   1) =   -12.68542 eV ==== 
     psi = 0.470*[#   1]+0.470*[#   5]+0.014*[#   2]+0.014*[#   6]+0.006*[#   3]
          +0.006*[#   4]+0.006*[#   7]+0.006*[#   8]
    |psi|^2 = 0.993
==== e(   2) =    -4.88501 eV ==== 
     psi = 0.427*[#   2]+0.427*[#   6]+0.060*[#   1]+0.060*[#   5]+0.002*[#   3]
          +0.002*[#   4]+0.002*[#   7]+0.002*[#   8]
    |psi|^2 = 0.980
==== e(   3) =    -3.40859 eV ==== 
     psi = 0.215*[#   3]+0.215*[#   4]+0.215*[#   7]+0.215*[#   8]+0.042*[#   1]
          +0.042*[#   5]+0.017*[#   2]+0.017*[#   6]
    |psi|^2 = 0.979
==== e(   4) =    -3.04663 eV ==== 
     psi = 0.245*[#   3]+0.245*[#   4]+0.245*[#   7]+0.245*[#   8]
    |psi|^2 = 0.980
==== e(   5) =     0.43016 eV ==== 
     psi = 0.360*[#   1]+0.360*[#   5]+0.040*[#   3]+0.040*[#   4]+0.040*[#   7]
          +0.040*[#   8]+0.036*[#   2]+0.036*[#   6]
    |psi|^2 = 0.951
==== e(   6) =     0.74279 eV ==== 
     psi = 0.253*[#   2]+0.253*[#   6]+0.013*[#   1]+0.013*[#   5]
    |psi|^2 = 0.533
==== e(   7) =     1.28239 eV ==== 
     psi = 0.206*[#   3]+0.206*[#   4]+0.206*[#   7]+0.206*[#   8]+0.034*[#   1]
          +0.034*[#   5]+0.002*[#   2]+0.002*[#   6]
    |psi|^2 = 0.897
==== e(   8) =     1.48264 eV ==== 
     psi = 0.224*[#   3]+0.224*[#   4]+0.224*[#   7]+0.224*[#   8]
    |psi|^2 = 0.896

 k =   0.0000000000  0.0989743319  0.0000000000
==== e(   1) =   -12.65951 eV ==== 
     psi = 0.465*[#   1]+0.465*[#   5]+0.014*[#   2]+0.014*[#   6]+0.009*[#   3]
          +0.009*[#   4]+0.009*[#   7]+0.009*[#   8]
    |psi|^2 = 0.993
==== e(   2) =    -4.87141 eV ==== 
     psi = 0.419*[#   2]+0.419*[#   6]+0.065*[#   1]+0.066*[#   5]+0.003*[#   3]
          +0.003*[#   4]+0.003*[#   7]+0.003*[#   8]
    |psi|^2 = 0.981
==== e(   3) =    -3.57586 eV ==== 
     psi = 0.206*[#   3]+0.206*[#   4]+0.206*[#   7]+0.206*[#   8]+0.051*[#   1]
          +0.051*[#   5]+0.026*[#   2]+0.026*[#   6]
    |psi|^2 = 0.980
==== e(   4) =    -3.09013 eV ==== 
     psi = 0.245*[#   3]+0.245*[#   4]+0.245*[#   7]+0.245*[#   8]
    |psi|^2 = 0.980
==== e(   5) =     0.50603 eV ==== 
     psi = 0.318*[#   1]+0.318*[#   5]+0.060*[#   3]+0.060*[#   4]+0.060*[#   7]
          +0.060*[#   8]+0.033*[#   6]+0.033*[#   2]
    |psi|^2 = 0.943
==== e(   6) =     0.75903 eV ==== 
     psi = 0.257*[#   2]+0.257*[#   6]+0.013*[#   1]+0.013*[#   5]+0.001*[#   3]
          +0.001*[#   4]+0.001*[#   7]+0.001*[#   8]
    |psi|^2 = 0.544
==== e(   7) =     1.34106 eV ==== 
     psi = 0.188*[#   3]+0.188*[#   4]+0.188*[#   7]+0.188*[#   8]+0.066*[#   1]
          +0.066*[#   5]+0.005*[#   2]+0.005*[#   6]
    |psi|^2 = 0.897
==== e(   8) =     1.57568 eV ==== 
     psi = 0.223*[#   3]+0.223*[#   4]+0.223*[#   7]+0.223*[#   8]
    |psi|^2 = 0.893

 k =   0.0000000000  0.1154700538  0.0000000000
==== e(   1) =   -12.62893 eV ==== 
     psi = 0.459*[#   1]+0.459*[#   5]+0.013*[#   2]+0.013*[#   6]+0.012*[#   3]
          +0.012*[#   4]+0.012*[#   7]+0.012*[#   8]
    |psi|^2 = 0.993
==== e(   2) =    -4.85908 eV ==== 
     psi = 0.405*[#   2]+0.405*[#   6]+0.074*[#   1]+0.074*[#   5]+0.006*[#   3]
          +0.006*[#   4]+0.006*[#   7]+0.006*[#   8]
    |psi|^2 = 0.982
==== e(   3) =    -3.75125 eV ==== 
     psi = 0.197*[#   3]+0.197*[#   4]+0.197*[#   7]+0.197*[#   8]+0.055*[#   1]
          +0.055*[#   5]+0.041*[#   2]+0.041*[#   6]
    |psi|^2 = 0.980
==== e(   4) =    -3.13903 eV ==== 
     psi = 0.245*[#   3]+0.245*[#   4]+0.245*[#   7]+0.245*[#   8]
    |psi|^2 = 0.981
==== e(   5) =     0.54478 eV ==== 
     psi = 0.271*[#   1]+0.271*[#   5]+0.083*[#   3]+0.083*[#   4]+0.083*[#   7]
          +0.083*[#   8]+0.029*[#   2]+0.029*[#   6]
    |psi|^2 = 0.931
==== e(   6) =     0.77812 eV ==== 
     psi = 0.260*[#   2]+0.260*[#   6]+0.014*[#   1]+0.014*[#   5]+0.003*[#   3]
          +0.003*[#   4]+0.003*[#   7]+0.003*[#   8]
    |psi|^2 = 0.559
==== e(   7) =     1.44505 eV ==== 
     psi = 0.167*[#   3]+0.167*[#   4]+0.167*[#   7]+0.167*[#   8]+0.105*[#   1]
          +0.105*[#   5]+0.009*[#   2]+0.009*[#   6]
    |psi|^2 = 0.898
==== e(   8) =     1.68290 eV ==== 
     psi = 0.222*[#   3]+0.222*[#   4]+0.222*[#   7]+0.222*[#   8]
    |psi|^2 = 0.890

 k =   0.0000000000  0.1319657758  0.0000000000
==== e(   1) =   -12.59369 eV ==== 
     psi = 0.453*[#   1]+0.453*[#   5]+0.015*[#   3]+0.015*[#   4]+0.015*[#   7]
          +0.015*[#   8]+0.013*[#   2]+0.013*[#   6]
    |psi|^2 = 0.993
==== e(   2) =    -4.85214 eV ==== 
     psi = 0.382*[#   2]+0.382*[#   6]+0.086*[#   1]+0.086*[#   5]+0.012*[#   3]
          +0.012*[#   4]+0.012*[#   7]+0.012*[#   8]
    |psi|^2 = 0.983
==== e(   3) =    -3.92690 eV ==== 
     psi = 0.185*[#   3]+0.185*[#   4]+0.185*[#   7]+0.185*[#   8]+0.065*[#   2]
          +0.065*[#   6]+0.054*[#   1]+0.054*[#   5]
    |psi|^2 = 0.979
==== e(   4) =    -3.19233 eV ==== 
     psi = 0.245*[#   3]+0.245*[#   4]+0.245*[#   7]+0.245*[#   8]
    |psi|^2 = 0.981
==== e(   5) =     0.54543 eV ==== 
     psi = 0.230*[#   1]+0.230*[#   5]+0.101*[#   3]+0.101*[#   4]+0.101*[#   7]
          +0.101*[#   8]+0.026*[#   2]+0.027*[#   6]
    |psi|^2 = 0.918
==== e(   6) =     0.79926 eV ==== 
     psi = 0.265*[#   2]+0.265*[#   6]+0.014*[#   1]+0.014*[#   5]+0.005*[#   3]
          +0.005*[#   4]+0.005*[#   7]+0.005*[#   8]
    |psi|^2 = 0.577
==== e(   7) =     1.59287 eV ==== 
     psi = 0.149*[#   3]+0.149*[#   4]+0.149*[#   7]+0.149*[#   8]+0.140*[#   1]
          +0.140*[#   5]+0.013*[#   2]+0.013*[#   6]
    |psi|^2 = 0.899
==== e(   8) =     1.80332 eV ==== 
     psi = 0.221*[#   3]+0.221*[#   4]+0.222*[#   7]+0.222*[#   8]
    |psi|^2 = 0.886

 k =   0.0000000000  0.1484614978  0.0000000000
==== e(   1) =   -12.55383 eV ==== 
     psi = 0.447*[#   1]+0.447*[#   5]+0.019*[#   3]+0.019*[#   4]+0.019*[#   7]
          +0.019*[#   8]+0.013*[#   2]+0.013*[#   6]
    |psi|^2 = 0.993
==== e(   2) =    -4.85862 eV ==== 
     psi = 0.340*[#   2]+0.340*[#   6]+0.105*[#   1]+0.105*[#   5]+0.024*[#   3]
          +0.024*[#   4]+0.024*[#   7]+0.024*[#   8]
    |psi|^2 = 0.984
==== e(   3) =    -4.09196 eV ==== 
     psi = 0.168*[#   3]+0.168*[#   4]+0.168*[#   7]+0.168*[#   8]+0.108*[#   2]
          +0.108*[#   6]+0.045*[#   1]+0.045*[#   5]
    |psi|^2 = 0.979
==== e(   4) =    -3.24910 eV ==== 
     psi = 0.245*[#   3]+0.245*[#   4]+0.245*[#   7]+0.245*[#   8]
    |psi|^2 = 0.982
==== e(   5) =     0.51727 eV ==== 
     psi = 0.203*[#   1]+0.203*[#   5]+0.113*[#   3]+0.113*[#   4]+0.113*[#   7]
          +0.113*[#   8]+0.024*[#   2]+0.024*[#   6]
    |psi|^2 = 0.908
==== e(   6) =     0.82107 eV ==== 
     psi = 0.271*[#   2]+0.271*[#   6]+0.013*[#   1]+0.013*[#   5]+0.007*[#   3]
          +0.007*[#   4]+0.007*[#   7]+0.007*[#   8]
    |psi|^2 = 0.596
==== e(   7) =     1.77366 eV ==== 
     psi = 0.163*[#   1]+0.163*[#   5]+0.136*[#   3]+0.136*[#   4]+0.136*[#   7]
          +0.136*[#   8]+0.015*[#   2]+0.015*[#   6]
    |psi|^2 = 0.899
==== e(   8) =     1.93592 eV ==== 
     psi = 0.221*[#   3]+0.221*[#   4]+0.221*[#   7]+0.221*[#   8]
    |psi|^2 = 0.882

 k =   0.0000000000  0.1649572198  0.0000000000
==== e(   1) =   -12.50936 eV ==== 
     psi = 0.440*[#   1]+0.440*[#   5]+0.022*[#   3]+0.022*[#   4]+0.022*[#   7]
          +0.022*[#   8]+0.012*[#   2]+0.012*[#   6]
    |psi|^2 = 0.993
==== e(   2) =    -4.89326 eV ==== 
     psi = 0.268*[#   2]+0.268*[#   6]+0.131*[#   1]+0.131*[#   5]+0.047*[#   3]
          +0.047*[#   4]+0.047*[#   7]+0.047*[#   8]
    |psi|^2 = 0.986
==== e(   3) =    -4.22952 eV ==== 
     psi = 0.180*[#   2]+0.180*[#   6]+0.140*[#   3]+0.140*[#   4]+0.140*[#   7]
          +0.140*[#   8]+0.028*[#   1]+0.028*[#   5]
    |psi|^2 = 0.978
==== e(   4) =    -3.30849 eV ==== 
     psi = 0.246*[#   3]+0.246*[#   4]+0.246*[#   7]+0.246*[#   8]
    |psi|^2 = 0.983
==== e(   5) =     0.47013 eV ==== 
     psi = 0.186*[#   1]+0.186*[#   5]+0.121*[#   3]+0.121*[#   4]+0.121*[#   7]
          +0.121*[#   8]+0.023*[#   2]+0.023*[#   6]
    |psi|^2 = 0.901
==== e(   6) =     0.84237 eV ==== 
     psi = 0.280*[#   2]+0.280*[#   6]+0.012*[#   1]+0.012*[#   5]+0.008*[#   3]
          +0.008*[#   4]+0.008*[#   7]+0.008*[#   8]
    |psi|^2 = 0.615
==== e(   7) =     1.97556 eV ==== 
     psi = 0.176*[#   1]+0.176*[#   5]+0.128*[#   3]+0.128*[#   4]+0.128*[#   7]
          +0.128*[#   8]+0.017*[#   2]+0.017*[#   6]
    |psi|^2 = 0.896
==== e(   8) =     2.07966 eV ==== 
     psi = 0.220*[#   3]+0.220*[#   4]+0.220*[#   7]+0.220*[#   8]
    |psi|^2 = 0.878

 k =   0.0000000000  0.1814529417  0.0000000000
==== e(   1) =   -12.46033 eV ==== 
     psi = 0.433*[#   1]+0.433*[#   5]+0.026*[#   3]+0.026*[#   4]+0.026*[#   7]
          +0.026*[#   8]+0.012*[#   2]+0.012*[#   6]
    |psi|^2 = 0.993
==== e(   2) =    -4.97435 eV ==== 
     psi = 0.176*[#   2]+0.176*[#   6]+0.158*[#   1]+0.158*[#   5]+0.080*[#   3]
          +0.080*[#   4]+0.080*[#   7]+0.080*[#   8]
    |psi|^2 = 0.988
==== e(   3) =    -4.31969 eV ==== 
     psi = 0.273*[#   2]+0.273*[#   6]+0.103*[#   3]+0.103*[#   4]+0.103*[#   7]
          +0.103*[#   8]+0.010*[#   1]+0.010*[#   5]
    |psi|^2 = 0.977
==== e(   4) =    -3.36974 eV ==== 
     psi = 0.246*[#   3]+0.246*[#   4]+0.246*[#   7]+0.246*[#   8]
    |psi|^2 = 0.983
==== e(   5) =     0.41096 eV ==== 
     psi = 0.178*[#   1]+0.178*[#   5]+0.124*[#   3]+0.124*[#   4]+0.124*[#   7]
          +0.124*[#   8]+0.022*[#   2]+0.022*[#   6]
    |psi|^2 = 0.896
==== e(   6) =     0.86194 eV ==== 
     psi = 0.291*[#   2]+0.291*[#   6]+0.011*[#   1]+0.011*[#   5]+0.009*[#   3]
          +0.009*[#   4]+0.009*[#   7]+0.009*[#   8]
    |psi|^2 = 0.637
==== e(   7) =     2.18792 eV ==== 
     psi = 0.181*[#   1]+0.181*[#   5]+0.123*[#   3]+0.123*[#   4]+0.123*[#   7]
          +0.123*[#   8]+0.018*[#   2]+0.018*[#   6]
    |psi|^2 = 0.888
==== e(   8) =     2.23352 eV ==== 
     psi = 0.218*[#   3]+0.218*[#   4]+0.218*[#   7]+0.218*[#   8]
    |psi|^2 = 0.874

 k =   0.0000000000  0.1979486637  0.0000000000
==== e(   1) =   -12.40677 eV ==== 
     psi = 0.426*[#   1]+0.426*[#   5]+0.029*[#   3]+0.029*[#   4]+0.029*[#   7]
          +0.029*[#   8]+0.012*[#   2]+0.012*[#   6]
    |psi|^2 = 0.993
==== e(   2) =    -5.10667 eV ==== 
     psi = 0.174*[#   1]+0.174*[#   5]+0.110*[#   3]+0.110*[#   4]+0.110*[#   7]
          +0.110*[#   8]+0.099*[#   2]+0.099*[#   6]
    |psi|^2 = 0.988
==== e(   3) =    -4.35630 eV ==== 
     psi = 0.350*[#   2]+0.350*[#   6]+0.069*[#   3]+0.069*[#   4]+0.069*[#   7]
          +0.069*[#   8]+0.002*[#   1]+0.002*[#   5]
    |psi|^2 = 0.978
==== e(   4) =    -3.43203 eV ==== 
     psi = 0.246*[#   3]+0.246*[#   4]+0.246*[#   7]+0.246*[#   8]
    |psi|^2 = 0.984
==== e(   5) =     0.34432 eV ==== 
     psi = 0.174*[#   1]+0.174*[#   5]+0.126*[#   3]+0.126*[#   4]+0.126*[#   7]
          +0.126*[#   8]+0.021*[#   2]+0.021*[#   6]
    |psi|^2 = 0.893
==== e(   6) =     0.87825 eV ==== 
     psi = 0.304*[#   2]+0.304*[#   6]+0.010*[#   1]+0.010*[#   5]+0.009*[#   3]
          +0.009*[#   4]+0.009*[#   7]+0.009*[#   8]
    |psi|^2 = 0.663
==== e(   7) =     2.39666 eV ==== 
     psi = 0.217*[#   3]+0.217*[#   4]+0.217*[#   7]+0.217*[#   8]
    |psi|^2 = 0.870
==== e(   8) =     2.39741 eV ==== 
     psi = 0.175*[#   1]+0.175*[#   5]+0.117*[#   3]+0.117*[#   4]+0.117*[#   7]
          +0.117*[#   8]+0.021*[#   2]+0.021*[#   6]
    |psi|^2 = 0.862

 k =   0.0000000000  0.2144443857  0.0000000000
==== e(   1) =   -12.34873 eV ==== 
     psi = 0.419*[#   1]+0.419*[#   5]+0.033*[#   3]+0.033*[#   4]+0.033*[#   7]
          +0.033*[#   8]+0.011*[#   2]+0.011*[#   6]
    |psi|^2 = 0.993
==== e(   2) =    -5.27604 eV ==== 
     psi = 0.182*[#   1]+0.182*[#   5]+0.129*[#   3]+0.129*[#   4]+0.129*[#   7]
          +0.129*[#   8]+0.054*[#   2]+0.054*[#   6]
    |psi|^2 = 0.988
==== e(   3) =    -4.35259 eV ==== 
     psi = 0.395*[#   2]+0.395*[#   6]+0.046*[#   3]+0.046*[#   4]+0.046*[#   7]
          +0.046*[#   8]+0.001*[#   1]+0.001*[#   5]
    |psi|^2 = 0.978
==== e(   4) =    -3.49478 eV ==== 
     psi = 0.246*[#   3]+0.246*[#   4]+0.246*[#   7]+0.246*[#   8]
    |psi|^2 = 0.984
==== e(   5) =     0.27311 eV ==== 
     psi = 0.173*[#   1]+0.173*[#   5]+0.126*[#   3]+0.126*[#   4]+0.126*[#   7]
          +0.126*[#   8]+0.021*[#   2]+0.021*[#   6]
    |psi|^2 = 0.890
==== e(   6) =     0.88926 eV ==== 
     psi = 0.318*[#   2]+0.318*[#   6]+0.010*[#   1]+0.010*[#   5]+0.009*[#   3]
          +0.009*[#   4]+0.009*[#   7]+0.009*[#   8]
    |psi|^2 = 0.692
==== e(   7) =     2.56805 eV ==== 
     psi = 0.216*[#   3]+0.216*[#   4]+0.216*[#   7]+0.216*[#   8]
    |psi|^2 = 0.866
==== e(   8) =     2.57171 eV ==== 
     psi = 0.143*[#   1]+0.143*[#   5]+0.101*[#   3]+0.101*[#   4]+0.101*[#   7]
          +0.101*[#   8]+0.032*[#   2]+0.032*[#   6]
    |psi|^2 = 0.753

 k =   0.0000000000  0.2309401077  0.0000000000
==== e(   1) =   -12.28626 eV ==== 
     psi = 0.413*[#   1]+0.412*[#   5]+0.036*[#   3]+0.036*[#   4]+0.036*[#   7]
          +0.036*[#   8]+0.011*[#   2]+0.011*[#   6]
    |psi|^2 = 0.992
==== e(   2) =    -5.46618 eV ==== 
     psi = 0.185*[#   1]+0.185*[#   5]+0.139*[#   3]+0.139*[#   4]+0.139*[#   7]
          +0.139*[#   8]+0.031*[#   2]+0.031*[#   6]
    |psi|^2 = 0.988
==== e(   3) =    -4.32403 eV ==== 
     psi = 0.419*[#   2]+0.419*[#   6]+0.034*[#   3]+0.034*[#   4]+0.034*[#   7]
          +0.034*[#   8]+0.004*[#   1]+0.004*[#   5]
    |psi|^2 = 0.980
==== e(   4) =    -3.55737 eV ==== 
     psi = 0.246*[#   3]+0.246*[#   4]+0.246*[#   7]+0.246*[#   8]
    |psi|^2 = 0.985
==== e(   5) =     0.19939 eV ==== 
     psi = 0.174*[#   1]+0.174*[#   5]+0.124*[#   3]+0.124*[#   4]+0.124*[#   7]
          +0.124*[#   8]+0.022*[#   2]+0.022*[#   6]
    |psi|^2 = 0.888
==== e(   6) =     0.89244 eV ==== 
     psi = 0.335*[#   2]+0.335*[#   6]+0.011*[#   1]+0.011*[#   5]+0.008*[#   3]
          +0.008*[#   4]+0.008*[#   7]+0.008*[#   8]
    |psi|^2 = 0.725
==== e(   7) =     2.64746 eV ==== 
     psi = 0.076*[#   1]+0.076*[#   5]+0.063*[#   3]+0.063*[#   4]+0.063*[#   7]
          +0.063*[#   8]+0.052*[#   2]+0.052*[#   6]
    |psi|^2 = 0.507
==== e(   8) =     2.74674 eV ==== 
     psi = 0.215*[#   3]+0.215*[#   4]+0.215*[#   7]+0.215*[#   8]
    |psi|^2 = 0.862

 k =   0.0000000000  0.2474358297  0.0000000000
==== e(   1) =   -12.21943 eV ==== 
     psi = 0.406*[#   1]+0.406*[#   5]+0.040*[#   3]+0.040*[#   4]+0.040*[#   7]
          +0.040*[#   8]+0.010*[#   2]+0.010*[#   6]
    |psi|^2 = 0.992
==== e(   2) =    -5.66700 eV ==== 
     psi = 0.188*[#   1]+0.188*[#   5]+0.144*[#   3]+0.144*[#   4]+0.144*[#   7]
          +0.144*[#   8]+0.018*[#   2]+0.018*[#   6]
    |psi|^2 = 0.988
==== e(   3) =    -4.28008 eV ==== 
     psi = 0.431*[#   2]+0.431*[#   6]+0.026*[#   3]+0.026*[#   4]+0.026*[#   7]
          +0.026*[#   8]+0.007*[#   1]+0.007*[#   5]
    |psi|^2 = 0.981
==== e(   4) =    -3.61930 eV ==== 
     psi = 0.246*[#   3]+0.246*[#   4]+0.246*[#   7]+0.246*[#   8]
    |psi|^2 = 0.985
==== e(   5) =     0.12457 eV ==== 
     psi = 0.176*[#   1]+0.176*[#   5]+0.123*[#   3]+0.123*[#   4]+0.123*[#   7]
          +0.123*[#   8]+0.022*[#   2]+0.022*[#   6]
    |psi|^2 = 0.887
==== e(   6) =     0.88486 eV ==== 
     psi = 0.353*[#   2]+0.353*[#   6]+0.011*[#   1]+0.011*[#   5]+0.008*[#   3]
          +0.008*[#   4]+0.008*[#   7]+0.008*[#   8]
    |psi|^2 = 0.760
==== e(   7) =     2.63672 eV ==== 
     psi = 0.054*[#   2]+0.054*[#   6]+0.040*[#   3]+0.040*[#   4]+0.040*[#   7]
          +0.040*[#   8]+0.039*[#   1]+0.039*[#   5]
    |psi|^2 = 0.346
==== e(   8) =     2.93168 eV ==== 
     psi = 0.215*[#   3]+0.215*[#   4]+0.215*[#   7]+0.215*[#   8]
    |psi|^2 = 0.858

 k =   0.0000000000  0.2639315516  0.0000000000
==== e(   1) =   -12.14832 eV ==== 
     psi = 0.399*[#   1]+0.399*[#   5]+0.043*[#   3]+0.043*[#   4]+0.043*[#   7]
          +0.043*[#   8]+0.010*[#   2]+0.010*[#   6]
    |psi|^2 = 0.992
==== e(   2) =    -5.87304 eV ==== 
     psi = 0.191*[#   1]+0.191*[#   5]+0.146*[#   3]+0.146*[#   4]+0.146*[#   7]
          +0.146*[#   8]+0.012*[#   2]+0.012*[#   6]
    |psi|^2 = 0.988
==== e(   3) =    -4.22570 eV ==== 
     psi = 0.438*[#   2]+0.438*[#   6]+0.021*[#   3]+0.021*[#   4]+0.021*[#   7]
          +0.021*[#   8]+0.010*[#   1]+0.010*[#   5]
    |psi|^2 = 0.981
==== e(   4) =    -3.68014 eV ==== 
     psi = 0.246*[#   3]+0.246*[#   4]+0.246*[#   7]+0.246*[#   8]
    |psi|^2 = 0.986
==== e(   5) =     0.04969 eV ==== 
     psi = 0.179*[#   1]+0.179*[#   5]+0.120*[#   3]+0.120*[#   4]+0.120*[#   7]
          +0.120*[#   8]+0.023*[#   2]+0.023*[#   6]
    |psi|^2 = 0.886
==== e(   6) =     0.86347 eV ==== 
     psi = 0.370*[#   2]+0.370*[#   6]+0.012*[#   1]+0.012*[#   5]+0.008*[#   3]
          +0.008*[#   4]+0.008*[#   7]+0.008*[#   8]
    |psi|^2 = 0.795
==== e(   7) =     2.60026 eV ==== 
     psi = 0.044*[#   2]+0.044*[#   6]+0.032*[#   3]+0.032*[#   4]+0.032*[#   7]
          +0.032*[#   8]+0.025*[#   1]+0.025*[#   5]
    |psi|^2 = 0.265
==== e(   8) =     3.12174 eV ==== 
     psi = 0.214*[#   3]+0.214*[#   4]+0.214*[#   7]+0.214*[#   8]
    |psi|^2 = 0.855

 k =   0.0000000000  0.2804272736  0.0000000000
==== e(   1) =   -12.07301 eV ==== 
     psi = 0.393*[#   1]+0.393*[#   5]+0.047*[#   3]+0.047*[#   4]+0.047*[#   7]
          +0.047*[#   8]+0.009*[#   2]+0.009*[#   6]
    |psi|^2 = 0.992
==== e(   2) =    -6.08121 eV ==== 
     psi = 0.194*[#   1]+0.194*[#   5]+0.146*[#   3]+0.146*[#   4]+0.146*[#   7]
          +0.146*[#   8]+0.007*[#   2]+0.007*[#   6]
    |psi|^2 = 0.988
==== e(   3) =    -4.16353 eV ==== 
     psi = 0.442*[#   2]+0.441*[#   6]+0.018*[#   3]+0.018*[#   4]+0.018*[#   7]
          +0.018*[#   8]+0.013*[#   1]+0.013*[#   5]
    |psi|^2 = 0.982
==== e(   4) =    -3.73950 eV ==== 
     psi = 0.247*[#   3]+0.247*[#   4]+0.247*[#   7]+0.247*[#   8]
    |psi|^2 = 0.986
==== e(   5) =    -0.02445 eV ==== 
     psi = 0.182*[#   1]+0.182*[#   5]+0.118*[#   3]+0.118*[#   4]+0.118*[#   7]
          +0.118*[#   8]+0.025*[#   2]+0.025*[#   6]
    |psi|^2 = 0.885
==== e(   6) =     0.82559 eV ==== 
     psi = 0.386*[#   2]+0.386*[#   6]+0.014*[#   1]+0.014*[#   5]+0.007*[#   3]
          +0.007*[#   4]+0.007*[#   7]+0.007*[#   8]
    |psi|^2 = 0.829
==== e(   7) =     2.56500 eV ==== 
     psi = 0.031*[#   2]+0.031*[#   6]+0.029*[#   3]+0.029*[#   4]+0.029*[#   7]
          +0.029*[#   8]+0.018*[#   1]+0.018*[#   5]
    |psi|^2 = 0.213
==== e(   8) =     3.31550 eV ==== 
     psi = 0.213*[#   3]+0.213*[#   4]+0.213*[#   7]+0.213*[#   8]
    |psi|^2 = 0.853

 k =   0.0000000000  0.2969229956  0.0000000000
==== e(   1) =   -11.99360 eV ==== 
     psi = 0.387*[#   1]+0.387*[#   5]+0.050*[#   3]+0.050*[#   4]+0.050*[#   7]
          +0.050*[#   8]+0.009*[#   2]+0.009*[#   6]
    |psi|^2 = 0.992
==== e(   2) =    -6.28965 eV ==== 
     psi = 0.196*[#   1]+0.196*[#   5]+0.146*[#   3]+0.146*[#   4]+0.146*[#   7]
          +0.146*[#   8]+0.005*[#   2]+0.005*[#   6]
    |psi|^2 = 0.988
==== e(   3) =    -4.09510 eV ==== 
     psi = 0.444*[#   2]+0.444*[#   6]+0.016*[#   3]+0.016*[#   4]+0.016*[#   7]
          +0.016*[#   8]+0.015*[#   1]+0.015*[#   5]
    |psi|^2 = 0.983
==== e(   4) =    -3.79701 eV ==== 
     psi = 0.247*[#   3]+0.247*[#   4]+0.247*[#   7]+0.247*[#   8]
    |psi|^2 = 0.987
==== e(   5) =    -0.09725 eV ==== 
     psi = 0.185*[#   1]+0.185*[#   5]+0.115*[#   3]+0.115*[#   4]+0.115*[#   7]
          +0.115*[#   8]+0.027*[#   2]+0.027*[#   6]
    |psi|^2 = 0.885
==== e(   6) =     0.76954 eV ==== 
     psi = 0.399*[#   2]+0.399*[#   6]+0.015*[#   1]+0.015*[#   5]+0.007*[#   3]
          +0.007*[#   4]+0.007*[#   7]+0.007*[#   8]
    |psi|^2 = 0.857
==== e(   7) =     2.54184 eV ==== 
     psi = 0.027*[#   3]+0.027*[#   4]+0.027*[#   7]+0.027*[#   8]+0.019*[#   2]
          +0.019*[#   6]+0.014*[#   1]+0.014*[#   5]
    |psi|^2 = 0.176
==== e(   8) =     3.51126 eV ==== 
     psi = 0.213*[#   3]+0.213*[#   4]+0.213*[#   7]+0.213*[#   8]
    |psi|^2 = 0.852

 k =   0.0000000000  0.3134187176  0.0000000000
==== e(   1) =   -11.91024 eV ==== 
     psi = 0.382*[#   1]+0.382*[#   5]+0.053*[#   3]+0.053*[#   4]+0.053*[#   7]
          +0.053*[#   8]+0.009*[#   2]+0.009*[#   6]
    |psi|^2 = 0.992
==== e(   2) =    -6.49709 eV ==== 
     psi = 0.199*[#   1]+0.199*[#   5]+0.146*[#   3]+0.146*[#   4]+0.146*[#   7]
          +0.146*[#   8]+0.003*[#   2]+0.003*[#   6]
    |psi|^2 = 0.987
==== e(   3) =    -4.02137 eV ==== 
     psi = 0.445*[#   2]+0.445*[#   6]+0.018*[#   1]+0.018*[#   5]+0.015*[#   3]
          +0.015*[#   4]+0.015*[#   7]+0.015*[#   8]
    |psi|^2 = 0.984
==== e(   4) =    -3.85240 eV ==== 
     psi = 0.247*[#   3]+0.247*[#   4]+0.247*[#   7]+0.247*[#   8]
    |psi|^2 = 0.987
==== e(   5) =    -0.16828 eV ==== 
     psi = 0.189*[#   1]+0.189*[#   5]+0.112*[#   3]+0.112*[#   4]+0.112*[#   7]
          +0.112*[#   8]+0.030*[#   2]+0.030*[#   6]
    |psi|^2 = 0.886
==== e(   6) =     0.69522 eV ==== 
     psi = 0.408*[#   2]+0.408*[#   6]+0.017*[#   1]+0.017*[#   5]+0.007*[#   3]
          +0.007*[#   4]+0.007*[#   7]+0.007*[#   8]
    |psi|^2 = 0.878
==== e(   7) =     2.53568 eV ==== 
     psi = 0.027*[#   3]+0.027*[#   4]+0.027*[#   7]+0.027*[#   8]+0.012*[#   1]
          +0.012*[#   5]+0.010*[#   2]+0.010*[#   6]
    |psi|^2 = 0.150
==== e(   8) =     3.70674 eV ==== 
     psi = 0.213*[#   3]+0.213*[#   4]+0.213*[#   7]+0.213*[#   8]
    |psi|^2 = 0.850

 k =   0.0000000000  0.3299144395  0.0000000000
==== e(   1) =   -11.82307 eV ==== 
     psi = 0.376*[#   1]+0.376*[#   5]+0.056*[#   3]+0.056*[#   4]+0.056*[#   7]
          +0.056*[#   8]+0.008*[#   2]+0.008*[#   6]
    |psi|^2 = 0.991
==== e(   2) =    -6.70264 eV ==== 
     psi = 0.201*[#   1]+0.201*[#   5]+0.145*[#   3]+0.145*[#   4]+0.145*[#   7]
          +0.145*[#   8]+0.002*[#   2]+0.002*[#   6]
    |psi|^2 = 0.987
==== e(   3) =    -3.94303 eV ==== 
     psi = 0.445*[#   2]+0.445*[#   6]+0.020*[#   1]+0.020*[#   5]+0.014*[#   3]
          +0.014*[#   4]+0.014*[#   7]+0.014*[#   8]
    |psi|^2 = 0.985
==== e(   4) =    -3.90539 eV ==== 
     psi = 0.247*[#   3]+0.247*[#   4]+0.247*[#   7]+0.247*[#   8]
    |psi|^2 = 0.987
==== e(   5) =    -0.23724 eV ==== 
     psi = 0.191*[#   1]+0.191*[#   5]+0.109*[#   3]+0.109*[#   4]+0.109*[#   7]
          +0.109*[#   8]+0.034*[#   2]+0.034*[#   6]
    |psi|^2 = 0.887
==== e(   6) =     0.60405 eV ==== 
     psi = 0.412*[#   2]+0.412*[#   6]+0.019*[#   1]+0.019*[#   5]+0.008*[#   3]
          +0.008*[#   4]+0.008*[#   7]+0.008*[#   8]
    |psi|^2 = 0.893
==== e(   7) =     2.54804 eV ==== 
     psi = 0.027*[#   3]+0.027*[#   4]+0.027*[#   7]+0.027*[#   8]+0.010*[#   1]
          +0.010*[#   5]+0.004*[#   2]+0.004*[#   6]
    |psi|^2 = 0.134
==== e(   8) =     3.89881 eV ==== 
     psi = 0.212*[#   3]+0.212*[#   4]+0.212*[#   7]+0.212*[#   8]
    |psi|^2 = 0.849

 k =   0.0000000000  0.3464101615  0.0000000000
==== e(   1) =   -11.73229 eV ==== 
     psi = 0.372*[#   1]+0.372*[#   5]+0.058*[#   3]+0.058*[#   4]+0.058*[#   7]
          +0.058*[#   8]+0.008*[#   2]+0.008*[#   6]
    |psi|^2 = 0.991
==== e(   2) =    -6.90556 eV ==== 
     psi = 0.204*[#   1]+0.204*[#   5]+0.144*[#   3]+0.144*[#   4]+0.144*[#   7]
          +0.144*[#   8]+0.001*[#   2]+0.001*[#   6]
    |psi|^2 = 0.987
==== e(   3) =    -3.95579 eV ==== 
     psi = 0.247*[#   3]+0.247*[#   4]+0.247*[#   7]+0.247*[#   8]
    |psi|^2 = 0.987
==== e(   4) =    -3.86061 eV ==== 
     psi = 0.445*[#   2]+0.445*[#   6]+0.022*[#   1]+0.022*[#   5]+0.013*[#   3]
          +0.013*[#   4]+0.013*[#   7]+0.013*[#   8]
    |psi|^2 = 0.985
==== e(   5) =    -0.30401 eV ==== 
     psi = 0.194*[#   1]+0.194*[#   5]+0.106*[#   3]+0.106*[#   4]+0.106*[#   7]
          +0.106*[#   8]+0.039*[#   2]+0.039*[#   6]
    |psi|^2 = 0.889
==== e(   6) =     0.49875 eV ==== 
     psi = 0.411*[#   2]+0.411*[#   6]+0.021*[#   1]+0.021*[#   5]+0.009*[#   3]
          +0.009*[#   4]+0.009*[#   7]+0.009*[#   8]
    |psi|^2 = 0.900
==== e(   7) =     2.57837 eV ==== 
     psi = 0.026*[#   3]+0.026*[#   4]+0.026*[#   7]+0.026*[#   8]+0.008*[#   1]
          +0.008*[#   5]+0.001*[#   2]+0.001*[#   6]
    |psi|^2 = 0.125
==== e(   8) =     4.08323 eV ==== 
     psi = 0.211*[#   3]+0.211*[#   4]+0.211*[#   7]+0.211*[#   8]
    |psi|^2 = 0.845

 k =   0.0000000000  0.3629058835  0.0000000000
==== e(   1) =   -11.63813 eV ==== 
     psi = 0.367*[#   1]+0.367*[#   5]+0.061*[#   3]+0.061*[#   4]+0.061*[#   7]
          +0.061*[#   8]+0.007*[#   2]+0.007*[#   6]
    |psi|^2 = 0.991
==== e(   2) =    -7.10519 eV ==== 
     psi = 0.206*[#   1]+0.206*[#   5]+0.143*[#   3]+0.143*[#   4]+0.143*[#   7]
          +0.143*[#   8]
    |psi|^2 = 0.987
==== e(   3) =    -4.00339 eV ==== 
     psi = 0.247*[#   3]+0.247*[#   4]+0.247*[#   7]+0.247*[#   8]
    |psi|^2 = 0.988
==== e(   4) =    -3.77462 eV ==== 
     psi = 0.444*[#   2]+0.444*[#   6]+0.023*[#   1]+0.023*[#   5]+0.013*[#   3]
          +0.013*[#   4]+0.013*[#   7]+0.013*[#   8]
    |psi|^2 = 0.986
==== e(   5) =    -0.36857 eV ==== 
     psi = 0.195*[#   1]+0.195*[#   5]+0.103*[#   3]+0.103*[#   4]+0.103*[#   7]
          +0.103*[#   8]+0.046*[#   2]+0.046*[#   6]
    |psi|^2 = 0.891
==== e(   6) =     0.38271 eV ==== 
     psi = 0.407*[#   2]+0.407*[#   6]+0.024*[#   1]+0.024*[#   5]+0.010*[#   3]
          +0.010*[#   4]+0.010*[#   7]+0.010*[#   8]
    |psi|^2 = 0.903
==== e(   7) =     2.62502 eV ==== 
     psi = 0.026*[#   3]+0.026*[#   4]+0.026*[#   7]+0.026*[#   8]+0.007*[#   1]
          +0.007*[#   5]
    |psi|^2 = 0.121
==== e(   8) =     4.25438 eV ==== 
     psi = 0.209*[#   3]+0.209*[#   4]+0.209*[#   7]+0.209*[#   8]
    |psi|^2 = 0.836

 k =   0.0000000000  0.3794016055  0.0000000000
==== e(   1) =   -11.54090 eV ==== 
     psi = 0.363*[#   1]+0.363*[#   5]+0.063*[#   3]+0.063*[#   4]+0.063*[#   7]
          +0.063*[#   8]+0.007*[#   2]+0.007*[#   6]
    |psi|^2 = 0.991
==== e(   2) =    -7.30092 eV ==== 
     psi = 0.208*[#   1]+0.208*[#   5]+0.142*[#   3]+0.142*[#   4]+0.142*[#   7]
          +0.142*[#   8]
    |psi|^2 = 0.986
==== e(   3) =    -4.04800 eV ==== 
     psi = 0.247*[#   3]+0.247*[#   4]+0.247*[#   7]+0.247*[#   8]
    |psi|^2 = 0.988
==== e(   4) =    -3.68553 eV ==== 
     psi = 0.443*[#   2]+0.443*[#   6]+0.025*[#   1]+0.025*[#   5]+0.012*[#   3]
          +0.012*[#   4]+0.012*[#   7]+0.012*[#   8]
    |psi|^2 = 0.987
==== e(   5) =    -0.43112 eV ==== 
     psi = 0.195*[#   1]+0.195*[#   5]+0.099*[#   3]+0.099*[#   4]+0.099*[#   7]
          +0.099*[#   8]+0.055*[#   2]+0.055*[#   6]
    |psi|^2 = 0.895
==== e(   6) =     0.25960 eV ==== 
     psi = 0.399*[#   2]+0.399*[#   6]+0.028*[#   1]+0.028*[#   5]+0.012*[#   3]
          +0.012*[#   4]+0.012*[#   7]+0.012*[#   8]
    |psi|^2 = 0.903
==== e(   7) =     2.68591 eV ==== 
     psi = 0.026*[#   3]+0.026*[#   4]+0.026*[#   7]+0.026*[#   8]+0.007*[#   1]
          +0.007*[#   5]+0.002*[#   2]+0.002*[#   6]
    |psi|^2 = 0.120
==== e(   8) =     4.32589 eV ==== 
     psi = 0.007*[#   2]+0.007*[#   6]+0.002*[#   3]+0.002*[#   4]+0.002*[#   7]
          +0.002*[#   8]
    |psi|^2 = 0.022

 k =   0.0000000000  0.3958973274  0.0000000000
==== e(   1) =   -11.44099 eV ==== 
     psi = 0.359*[#   1]+0.359*[#   5]+0.065*[#   3]+0.065*[#   4]+0.065*[#   7]
          +0.065*[#   8]+0.006*[#   2]+0.006*[#   6]
    |psi|^2 = 0.991
==== e(   2) =    -7.49211 eV ==== 
     psi = 0.210*[#   1]+0.210*[#   5]+0.141*[#   3]+0.141*[#   4]+0.141*[#   7]
          +0.141*[#   8]
    |psi|^2 = 0.986
==== e(   3) =    -4.08948 eV ==== 
     psi = 0.247*[#   3]+0.247*[#   4]+0.247*[#   7]+0.247*[#   8]
    |psi|^2 = 0.988
==== e(   4) =    -3.59389 eV ==== 
     psi = 0.442*[#   2]+0.442*[#   6]+0.027*[#   1]+0.027*[#   5]+0.012*[#   3]
          +0.012*[#   4]+0.012*[#   7]+0.012*[#   8]
    |psi|^2 = 0.987
==== e(   5) =    -0.49213 eV ==== 
     psi = 0.193*[#   1]+0.193*[#   5]+0.094*[#   3]+0.094*[#   4]+0.094*[#   7]
          +0.094*[#   8]+0.068*[#   2]+0.068*[#   6]
    |psi|^2 = 0.899
==== e(   6) =     0.13308 eV ==== 
     psi = 0.386*[#   2]+0.386*[#   6]+0.034*[#   1]+0.034*[#   5]+0.015*[#   3]
          +0.015*[#   4]+0.015*[#   7]+0.015*[#   8]
    |psi|^2 = 0.900
==== e(   7) =     2.75895 eV ==== 
     psi = 0.025*[#   3]+0.025*[#   4]+0.025*[#   7]+0.025*[#   8]+0.006*[#   1]
          +0.006*[#   5]+0.004*[#   2]+0.004*[#   6]
    |psi|^2 = 0.121
==== e(   8) =     4.53094 eV ==== 
     psi = 0.196*[#   3]+0.196*[#   4]+0.196*[#   7]+0.196*[#   8]
    |psi|^2 = 0.785

 k =   0.0000000000  0.4123930494  0.0000000000
==== e(   1) =   -11.33888 eV ==== 
     psi = 0.356*[#   1]+0.356*[#   5]+0.067*[#   3]+0.067*[#   4]+0.067*[#   7]
          +0.067*[#   8]+0.006*[#   2]+0.006*[#   6]
    |psi|^2 = 0.991
==== e(   2) =    -7.67808 eV ==== 
     psi = 0.211*[#   1]+0.211*[#   5]+0.141*[#   3]+0.141*[#   4]+0.141*[#   7]
          +0.141*[#   8]
    |psi|^2 = 0.986
==== e(   3) =    -4.12774 eV ==== 
     psi = 0.247*[#   3]+0.247*[#   4]+0.247*[#   7]+0.247*[#   8]
    |psi|^2 = 0.988
==== e(   4) =    -3.50031 eV ==== 
     psi = 0.440*[#   2]+0.440*[#   6]+0.029*[#   1]+0.029*[#   5]+0.012*[#   3]
          +0.012*[#   4]+0.012*[#   7]+0.012*[#   8]
    |psi|^2 = 0.988
==== e(   5) =    -0.55245 eV ==== 
     psi = 0.188*[#   1]+0.188*[#   5]+0.089*[#   3]+0.089*[#   4]+0.089*[#   7]
          +0.089*[#   8]+0.087*[#   2]+0.087*[#   6]
    |psi|^2 = 0.905
==== e(   6) =     0.00688 eV ==== 
     psi = 0.368*[#   2]+0.368*[#   6]+0.042*[#   1]+0.042*[#   5]+0.019*[#   3]
          +0.019*[#   4]+0.019*[#   7]+0.019*[#   8]
    |psi|^2 = 0.895
==== e(   7) =     2.84219 eV ==== 
     psi = 0.025*[#   3]+0.025*[#   4]+0.025*[#   7]+0.025*[#   8]+0.006*[#   2]
          +0.006*[#   6]+0.006*[#   1]+0.006*[#   5]
    |psi|^2 = 0.123
==== e(   8) =     4.52999 eV ==== 
     psi = 0.008*[#   2]+0.008*[#   6]+0.002*[#   3]+0.002*[#   4]+0.002*[#   7]
          +0.002*[#   8]
    |psi|^2 = 0.025

 k =   0.0000000000  0.4288887714  0.0000000000
==== e(   1) =   -11.23524 eV ==== 
     psi = 0.354*[#   1]+0.354*[#   5]+0.068*[#   3]+0.068*[#   4]+0.068*[#   7]
          +0.068*[#   8]+0.006*[#   2]+0.006*[#   6]
    |psi|^2 = 0.991
==== e(   2) =    -7.85799 eV ==== 
     psi = 0.213*[#   1]+0.213*[#   5]+0.140*[#   3]+0.140*[#   4]+0.140*[#   7]
          +0.140*[#   8]
    |psi|^2 = 0.985
==== e(   3) =    -4.16263 eV ==== 
     psi = 0.247*[#   3]+0.247*[#   4]+0.247*[#   7]+0.247*[#   8]
    |psi|^2 = 0.988
==== e(   4) =    -3.40556 eV ==== 
     psi = 0.438*[#   2]+0.438*[#   6]+0.031*[#   1]+0.031*[#   5]+0.012*[#   3]
          +0.012*[#   4]+0.012*[#   7]+0.012*[#   8]
    |psi|^2 = 0.988
==== e(   5) =    -0.61344 eV ==== 
     psi = 0.178*[#   1]+0.178*[#   5]+0.113*[#   2]+0.114*[#   6]+0.082*[#   3]
          +0.082*[#   4]+0.082*[#   7]+0.082*[#   8]
    |psi|^2 = 0.912
==== e(   6) =    -0.11504 eV ==== 
     psi = 0.342*[#   2]+0.342*[#   6]+0.055*[#   1]+0.055*[#   5]+0.024*[#   3]
          +0.024*[#   4]+0.024*[#   7]+0.024*[#   8]
    |psi|^2 = 0.889
==== e(   7) =     2.93385 eV ==== 
     psi = 0.025*[#   3]+0.025*[#   4]+0.025*[#   7]+0.025*[#   8]+0.008*[#   2]
          +0.008*[#   6]+0.005*[#   1]+0.005*[#   5]
    |psi|^2 = 0.126
==== e(   8) =     4.69396 eV ==== 
     psi = 0.172*[#   3]+0.172*[#   4]+0.172*[#   7]+0.172*[#   8]
    |psi|^2 = 0.690

 k =   0.0000000000  0.4453844934  0.0000000000
==== e(   1) =   -11.13094 eV ==== 
     psi = 0.352*[#   1]+0.352*[#   5]+0.069*[#   3]+0.069*[#   4]+0.069*[#   7]
          +0.069*[#   8]+0.005*[#   2]+0.005*[#   6]
    |psi|^2 = 0.991
==== e(   2) =    -8.03085 eV ==== 
     psi = 0.214*[#   1]+0.214*[#   5]+0.139*[#   3]+0.139*[#   4]+0.139*[#   7]
          +0.139*[#   8]
    |psi|^2 = 0.985
==== e(   3) =    -4.19408 eV ==== 
     psi = 0.247*[#   3]+0.247*[#   4]+0.247*[#   7]+0.247*[#   8]
    |psi|^2 = 0.988
==== e(   4) =    -3.31059 eV ==== 
     psi = 0.436*[#   2]+0.436*[#   6]+0.033*[#   1]+0.034*[#   5]+0.012*[#   3]
          +0.012*[#   4]+0.012*[#   7]+0.012*[#   8]
    |psi|^2 = 0.989
==== e(   5) =    -0.67700 eV ==== 
     psi = 0.162*[#   1]+0.162*[#   5]+0.151*[#   2]+0.151*[#   6]+0.073*[#   3]
          +0.073*[#   4]+0.073*[#   7]+0.073*[#   8]
    |psi|^2 = 0.920
==== e(   6) =    -0.22829 eV ==== 
     psi = 0.305*[#   2]+0.305*[#   6]+0.072*[#   1]+0.072*[#   5]+0.032*[#   3]
          +0.032*[#   4]+0.032*[#   7]+0.032*[#   8]
    |psi|^2 = 0.881
==== e(   7) =     3.03231 eV ==== 
     psi = 0.024*[#   3]+0.024*[#   4]+0.024*[#   7]+0.024*[#   8]+0.011*[#   2]
          +0.011*[#   6]+0.005*[#   1]+0.005*[#   5]
    |psi|^2 = 0.128
==== e(   8) =     4.73777 eV ==== 
     psi = 0.160*[#   3]+0.160*[#   4]+0.160*[#   7]+0.160*[#   8]
    |psi|^2 = 0.641

 k =   0.0000000000  0.4618802154  0.0000000000
==== e(   1) =   -11.02716 eV ==== 
     psi = 0.350*[#   1]+0.350*[#   5]+0.070*[#   3]+0.070*[#   4]+0.070*[#   7]
          +0.070*[#   8]+0.005*[#   2]+0.005*[#   6]
    |psi|^2 = 0.991
==== e(   2) =    -8.19536 eV ==== 
     psi = 0.214*[#   1]+0.214*[#   5]+0.139*[#   3]+0.139*[#   4]+0.139*[#   7]
          +0.139*[#   8]
    |psi|^2 = 0.984
==== e(   3) =    -4.22200 eV ==== 
     psi = 0.247*[#   3]+0.247*[#   4]+0.247*[#   7]+0.247*[#   8]
    |psi|^2 = 0.988
==== e(   4) =    -3.21663 eV ==== 
     psi = 0.434*[#   2]+0.434*[#   6]+0.036*[#   1]+0.036*[#   5]+0.012*[#   3]
          +0.012*[#   4]+0.012*[#   7]+0.012*[#   8]
    |psi|^2 = 0.989
==== e(   5) =    -0.74519 eV ==== 
     psi = 0.200*[#   2]+0.200*[#   6]+0.140*[#   1]+0.140*[#   5]+0.063*[#   3]
          +0.063*[#   4]+0.063*[#   7]+0.063*[#   8]
    |psi|^2 = 0.929
==== e(   6) =    -0.32845 eV ==== 
     psi = 0.258*[#   2]+0.258*[#   6]+0.096*[#   1]+0.096*[#   5]+0.041*[#   3]
          +0.041*[#   4]+0.041*[#   7]+0.041*[#   8]
    |psi|^2 = 0.873
==== e(   7) =     3.13589 eV ==== 
     psi = 0.024*[#   3]+0.024*[#   4]+0.024*[#   7]+0.024*[#   8]+0.013*[#   2]
          +0.013*[#   6]+0.005*[#   1]+0.005*[#   5]
    |psi|^2 = 0.131
==== e(   8) =     4.76422 eV ==== 
     psi = 0.150*[#   3]+0.150*[#   4]+0.150*[#   7]+0.150*[#   8]
    |psi|^2 = 0.599

 k =   0.0000000000  0.4783759373  0.0000000000
==== e(   1) =   -10.92553 eV ==== 
     psi = 0.350*[#   1]+0.350*[#   5]+0.071*[#   3]+0.071*[#   4]+0.071*[#   7]
          +0.071*[#   8]+0.005*[#   2]+0.005*[#   6]
    |psi|^2 = 0.991
==== e(   2) =    -8.34978 eV ==== 
     psi = 0.214*[#   1]+0.214*[#   5]+0.139*[#   3]+0.139*[#   4]+0.139*[#   7]
          +0.139*[#   8]
    |psi|^2 = 0.984
==== e(   3) =    -4.24632 eV ==== 
     psi = 0.247*[#   3]+0.247*[#   4]+0.247*[#   7]+0.247*[#   8]
    |psi|^2 = 0.989
==== e(   4) =    -3.12532 eV ==== 
     psi = 0.431*[#   2]+0.431*[#   6]+0.038*[#   1]+0.038*[#   5]+0.013*[#   3]
          +0.013*[#   4]+0.013*[#   7]+0.013*[#   8]
    |psi|^2 = 0.990
==== e(   5) =    -0.81900 eV ==== 
     psi = 0.254*[#   2]+0.254*[#   6]+0.113*[#   1]+0.113*[#   5]+0.051*[#   3]
          +0.051*[#   4]+0.051*[#   7]+0.051*[#   8]
    |psi|^2 = 0.937
==== e(   6) =    -0.41193 eV ==== 
     psi = 0.205*[#   2]+0.205*[#   6]+0.123*[#   1]+0.123*[#   5]+0.052*[#   3]
          +0.052*[#   4]+0.052*[#   7]+0.052*[#   8]
    |psi|^2 = 0.866
==== e(   7) =     3.24276 eV ==== 
     psi = 0.024*[#   3]+0.024*[#   4]+0.024*[#   7]+0.024*[#   8]+0.015*[#   2]
          +0.015*[#   6]+0.004*[#   1]+0.004*[#   5]
    |psi|^2 = 0.133
==== e(   8) =     4.77894 eV ==== 
     psi = 0.141*[#   3]+0.141*[#   4]+0.141*[#   7]+0.141*[#   8]
    |psi|^2 = 0.565

 k =   0.0000000000  0.4948716593  0.0000000000
==== e(   1) =   -10.82828 eV ==== 
     psi = 0.350*[#   1]+0.350*[#   5]+0.071*[#   3]+0.071*[#   4]+0.071*[#   7]
          +0.071*[#   8]+0.004*[#   2]+0.004*[#   6]
    |psi|^2 = 0.991
==== e(   2) =    -8.49183 eV ==== 
     psi = 0.213*[#   1]+0.213*[#   5]+0.139*[#   3]+0.139*[#   4]+0.139*[#   7]
          +0.139*[#   8]
    |psi|^2 = 0.984
==== e(   3) =    -4.26699 eV ==== 
     psi = 0.247*[#   3]+0.247*[#   4]+0.247*[#   7]+0.247*[#   8]
    |psi|^2 = 0.989
==== e(   4) =    -3.03877 eV ==== 
     psi = 0.428*[#   2]+0.428*[#   6]+0.041*[#   1]+0.041*[#   5]+0.013*[#   3]
          +0.013*[#   4]+0.013*[#   7]+0.013*[#   8]
    |psi|^2 = 0.990
==== e(   5) =    -0.89682 eV ==== 
     psi = 0.304*[#   2]+0.305*[#   6]+0.087*[#   1]+0.087*[#   5]+0.040*[#   3]
          +0.040*[#   4]+0.040*[#   7]+0.040*[#   8]
    |psi|^2 = 0.943
==== e(   6) =    -0.47755 eV ==== 
     psi = 0.157*[#   2]+0.157*[#   6]+0.149*[#   1]+0.149*[#   5]+0.062*[#   3]
          +0.062*[#   4]+0.062*[#   7]+0.062*[#   8]
    |psi|^2 = 0.861
==== e(   7) =     3.35062 eV ==== 
     psi = 0.023*[#   3]+0.023*[#   4]+0.023*[#   7]+0.023*[#   8]+0.017*[#   2]
          +0.017*[#   6]+0.004*[#   1]+0.004*[#   5]
    |psi|^2 = 0.136
==== e(   8) =     4.78620 eV ==== 
     psi = 0.135*[#   3]+0.135*[#   4]+0.135*[#   7]+0.135*[#   8]
    |psi|^2 = 0.539

 k =   0.0000000000  0.5113673813  0.0000000000
==== e(   1) =   -10.73844 eV ==== 
     psi = 0.350*[#   1]+0.350*[#   5]+0.071*[#   3]+0.071*[#   4]+0.071*[#   7]
          +0.071*[#   8]+0.004*[#   2]+0.004*[#   6]
    |psi|^2 = 0.991
==== e(   2) =    -8.61839 eV ==== 
     psi = 0.212*[#   1]+0.212*[#   5]+0.140*[#   3]+0.140*[#   4]+0.140*[#   7]
          +0.140*[#   8]
    |psi|^2 = 0.983
==== e(   3) =    -4.28396 eV ==== 
     psi = 0.247*[#   3]+0.247*[#   4]+0.247*[#   7]+0.247*[#   8]
    |psi|^2 = 0.989
==== e(   4) =    -2.95975 eV ==== 
     psi = 0.425*[#   2]+0.425*[#   6]+0.044*[#   1]+0.044*[#   5]+0.013*[#   3]
          +0.013*[#   4]+0.013*[#   7]+0.013*[#   8]
    |psi|^2 = 0.991
==== e(   5) =    -0.97396 eV ==== 
     psi = 0.345*[#   2]+0.345*[#   6]+0.066*[#   1]+0.066*[#   5]+0.031*[#   3]
          +0.031*[#   4]+0.031*[#   7]+0.031*[#   8]
    |psi|^2 = 0.946
==== e(   6) =    -0.52662 eV ==== 
     psi = 0.171*[#   1]+0.171*[#   5]+0.119*[#   2]+0.119*[#   6]+0.070*[#   3]
          +0.070*[#   4]+0.070*[#   7]+0.070*[#   8]
    |psi|^2 = 0.858
==== e(   7) =     3.45629 eV ==== 
     psi = 0.023*[#   3]+0.023*[#   4]+0.023*[#   7]+0.023*[#   8]+0.019*[#   2]
          +0.019*[#   6]+0.004*[#   1]+0.004*[#   5]
    |psi|^2 = 0.139
==== e(   8) =     4.78904 eV ==== 
     psi = 0.130*[#   3]+0.130*[#   4]+0.130*[#   7]+0.130*[#   8]
    |psi|^2 = 0.519

 k =   0.0000000000  0.5278631033  0.0000000000
==== e(   1) =   -10.66005 eV ==== 
     psi = 0.352*[#   1]+0.352*[#   5]+0.070*[#   3]+0.070*[#   4]+0.070*[#   7]
          +0.070*[#   8]+0.004*[#   2]+0.004*[#   6]
    |psi|^2 = 0.991
==== e(   2) =    -8.72539 eV ==== 
     psi = 0.210*[#   1]+0.210*[#   5]+0.141*[#   3]+0.141*[#   4]+0.141*[#   7]
          +0.141*[#   8]
    |psi|^2 = 0.983
==== e(   3) =    -4.29720 eV ==== 
     psi = 0.247*[#   3]+0.247*[#   4]+0.247*[#   7]+0.247*[#   8]
    |psi|^2 = 0.989
==== e(   4) =    -2.89171 eV ==== 
     psi = 0.423*[#   2]+0.422*[#   6]+0.046*[#   1]+0.046*[#   5]+0.013*[#   3]
          +0.013*[#   4]+0.013*[#   7]+0.013*[#   8]
    |psi|^2 = 0.991
==== e(   5) =    -1.04403 eV ==== 
     psi = 0.373*[#   6]+0.373*[#   2]+0.050*[#   1]+0.050*[#   5]+0.025*[#   3]
          +0.025*[#   4]+0.025*[#   7]+0.025*[#   8]
    |psi|^2 = 0.947
==== e(   6) =    -0.56171 eV ==== 
     psi = 0.185*[#   1]+0.185*[#   5]+0.094*[#   2]+0.094*[#   6]+0.075*[#   3]
          +0.075*[#   4]+0.075*[#   7]+0.075*[#   8]
    |psi|^2 = 0.858
==== e(   7) =     3.55501 eV ==== 
     psi = 0.023*[#   3]+0.023*[#   4]+0.023*[#   7]+0.023*[#   8]+0.022*[#   2]
          +0.022*[#   6]+0.004*[#   1]+0.004*[#   5]
    |psi|^2 = 0.143
==== e(   8) =     4.72145 eV ==== 
     psi = 0.006*[#   2]+0.006*[#   6]+0.005*[#   3]+0.005*[#   4]+0.005*[#   7]
          +0.005*[#   8]
    |psi|^2 = 0.030

 k =   0.0000000000  0.5443588252  0.0000000000
==== e(   1) =   -10.59810 eV ==== 
     psi = 0.354*[#   1]+0.354*[#   5]+0.069*[#   3]+0.069*[#   4]+0.069*[#   7]
          +0.069*[#   8]+0.004*[#   2]+0.004*[#   6]
    |psi|^2 = 0.991
==== e(   2) =    -8.80781 eV ==== 
     psi = 0.208*[#   1]+0.208*[#   5]+0.142*[#   3]+0.142*[#   4]+0.142*[#   7]
          +0.142*[#   8]
    |psi|^2 = 0.982
==== e(   3) =    -4.30668 eV ==== 
     psi = 0.247*[#   3]+0.247*[#   4]+0.247*[#   7]+0.247*[#   8]
    |psi|^2 = 0.989
==== e(   4) =    -2.83866 eV ==== 
     psi = 0.420*[#   2]+0.420*[#   6]+0.048*[#   1]+0.048*[#   5]+0.014*[#   3]
          +0.014*[#   4]+0.014*[#   7]+0.014*[#   8]
    |psi|^2 = 0.992
==== e(   5) =    -1.10033 eV ==== 
     psi = 0.391*[#   6]+0.391*[#   2]+0.039*[#   1]+0.039*[#   5]+0.022*[#   3]
          +0.022*[#   4]+0.022*[#   7]+0.022*[#   8]
    |psi|^2 = 0.947
==== e(   6) =    -0.58517 eV ==== 
     psi = 0.195*[#   1]+0.195*[#   5]+0.078*[#   3]+0.078*[#   4]+0.078*[#   7]
          +0.078*[#   8]+0.078*[#   2]+0.078*[#   6]
    |psi|^2 = 0.858
==== e(   7) =     3.63934 eV ==== 
     psi = 0.024*[#   2]+0.024*[#   6]+0.023*[#   3]+0.023*[#   4]+0.023*[#   7]
          +0.023*[#   8]+0.004*[#   1]+0.004*[#   5]
    |psi|^2 = 0.147
==== e(   8) =     4.65704 eV ==== 
     psi = 0.005*[#   3]+0.005*[#   4]+0.005*[#   7]+0.005*[#   8]+0.004*[#   2]
          +0.004*[#   6]
    |psi|^2 = 0.026

 k =   0.0000000000  0.5608545472  0.0000000000
==== e(   1) =   -10.55794 eV ==== 
     psi = 0.355*[#   1]+0.355*[#   5]+0.069*[#   3]+0.069*[#   4]+0.069*[#   7]
          +0.069*[#   8]+0.003*[#   2]+0.003*[#   6]
    |psi|^2 = 0.992
==== e(   2) =    -8.86026 eV ==== 
     psi = 0.206*[#   1]+0.206*[#   5]+0.142*[#   3]+0.142*[#   4]+0.142*[#   7]
          +0.142*[#   8]
    |psi|^2 = 0.982
==== e(   3) =    -4.31237 eV ==== 
     psi = 0.247*[#   3]+0.247*[#   4]+0.247*[#   7]+0.247*[#   8]
    |psi|^2 = 0.989
==== e(   4) =    -2.80469 eV ==== 
     psi = 0.418*[#   2]+0.418*[#   6]+0.050*[#   1]+0.050*[#   5]+0.014*[#   3]
          +0.014*[#   4]+0.014*[#   7]+0.014*[#   8]
    |psi|^2 = 0.992
==== e(   5) =    -1.13695 eV ==== 
     psi = 0.401*[#   6]+0.401*[#   2]+0.033*[#   1]+0.033*[#   5]+0.020*[#   3]
          +0.020*[#   4]+0.020*[#   7]+0.020*[#   8]
    |psi|^2 = 0.947
==== e(   6) =    -0.59864 eV ==== 
     psi = 0.200*[#   1]+0.200*[#   5]+0.080*[#   3]+0.080*[#   4]+0.080*[#   7]
          +0.080*[#   8]+0.069*[#   2]+0.069*[#   6]
    |psi|^2 = 0.858
==== e(   7) =     3.69841 eV ==== 
     psi = 0.026*[#   2]+0.026*[#   6]+0.023*[#   3]+0.023*[#   4]+0.023*[#   7]
          +0.023*[#   8]+0.004*[#   1]+0.004*[#   5]
    |psi|^2 = 0.152
==== e(   8) =     4.60747 eV ==== 
     psi = 0.005*[#   3]+0.005*[#   4]+0.005*[#   7]+0.005*[#   8]+0.002*[#   2]
          +0.002*[#   6]
    |psi|^2 = 0.022

 k =   0.0000000000 -0.5773502692  0.0000000000
==== e(   1) =   -10.54398 eV ==== 
     psi = 0.356*[#   1]+0.356*[#   5]+0.068*[#   3]+0.068*[#   4]+0.068*[#   7]
          +0.068*[#   8]+0.003*[#   2]+0.003*[#   6]
    |psi|^2 = 0.992
==== e(   2) =    -8.87832 eV ==== 
     psi = 0.205*[#   1]+0.205*[#   5]+0.143*[#   3]+0.143*[#   4]+0.143*[#   7]
          +0.143*[#   8]
    |psi|^2 = 0.982
==== e(   3) =    -4.31428 eV ==== 
     psi = 0.247*[#   3]+0.247*[#   4]+0.247*[#   7]+0.247*[#   8]
    |psi|^2 = 0.989
==== e(   4) =    -2.79296 eV ==== 
     psi = 0.418*[#   2]+0.418*[#   6]+0.051*[#   1]+0.051*[#   5]+0.014*[#   3]
          +0.014*[#   4]+0.014*[#   7]+0.014*[#   8]
    |psi|^2 = 0.992
==== e(   5) =    -1.14968 eV ==== 
     psi = 0.404*[#   6]+0.404*[#   2]+0.031*[#   1]+0.031*[#   5]+0.019*[#   3]
          +0.019*[#   4]+0.019*[#   7]+0.019*[#   8]
    |psi|^2 = 0.947
==== e(   6) =    -0.60303 eV ==== 
     psi = 0.202*[#   1]+0.202*[#   5]+0.080*[#   3]+0.080*[#   4]+0.080*[#   7]
          +0.080*[#   8]+0.067*[#   2]+0.067*[#   6]
    |psi|^2 = 0.858
==== e(   7) =     3.72006 eV ==== 
     psi = 0.026*[#   2]+0.026*[#   6]+0.023*[#   3]+0.023*[#   4]+0.023*[#   7]
          +0.023*[#   8]+0.004*[#   1]+0.004*[#   5]
    |psi|^2 = 0.154
==== e(   8) =     4.58861 eV ==== 
     psi = 0.005*[#   3]+0.005*[#   4]+0.005*[#   7]+0.005*[#   8]
    |psi|^2 = 0.020

 k =   0.0142857143  0.0247435830  0.0000000000
==== e(   1) =   -12.73733 eV ==== 
     psi = 0.481*[#   1]+0.481*[#   5]+0.014*[#   2]+0.014*[#   6]
    |psi|^2 = 0.994
==== e(   2) =    -4.91814 eV ==== 
     psi = 0.437*[#   2]+0.437*[#   6]+0.052*[#   1]+0.052*[#   5]
    |psi|^2 = 0.979
==== e(   3) =    -3.00427 eV ==== 
     psi = 0.240*[#   3]+0.240*[#   4]+0.240*[#   7]+0.240*[#   8]+0.008*[#   1]
          +0.008*[#   5]+0.002*[#   2]+0.002*[#   6]
    |psi|^2 = 0.978
==== e(   4) =    -2.95294 eV ==== 
     psi = 0.245*[#   3]+0.245*[#   4]+0.245*[#   7]+0.245*[#   8]
    |psi|^2 = 0.978
==== e(   5) =     0.12985 eV ==== 
     psi = 0.426*[#   1]+0.425*[#   5]+0.043*[#   2]+0.043*[#   6]+0.005*[#   3]
          +0.005*[#   4]+0.005*[#   7]+0.005*[#   8]
    |psi|^2 = 0.957
==== e(   6) =     0.70932 eV ==== 
     psi = 0.246*[#   2]+0.246*[#   6]+0.013*[#   1]+0.013*[#   5]
    |psi|^2 = 0.518
==== e(   7) =     1.25705 eV ==== 
     psi = 0.225*[#   3]+0.225*[#   4]+0.225*[#   7]+0.225*[#   8]+0.001*[#   1]
          +0.001*[#   5]
    |psi|^2 = 0.901
==== e(   8) =     1.29019 eV ==== 
     psi = 0.225*[#   3]+0.225*[#   4]+0.225*[#   7]+0.225*[#   8]
    |psi|^2 = 0.902

 k =   0.0142857143  0.0412393049  0.0000000000
==== e(   1) =   -12.72789 eV ==== 
     psi = 0.479*[#   1]+0.479*[#   5]+0.014*[#   2]+0.014*[#   6]+0.002*[#   3]
          +0.002*[#   4]+0.002*[#   7]+0.002*[#   8]
    |psi|^2 = 0.994
==== e(   2) =    -4.91166 eV ==== 
     psi = 0.436*[#   2]+0.436*[#   6]+0.053*[#   1]+0.053*[#   5]
    |psi|^2 = 0.979
==== e(   3) =    -3.08635 eV ==== 
     psi = 0.234*[#   3]+0.234*[#   4]+0.234*[#   7]+0.234*[#   8]+0.017*[#   1]
          +0.017*[#   5]+0.005*[#   2]+0.005*[#   6]
    |psi|^2 = 0.979
==== e(   4) =    -2.97097 eV ==== 
     psi = 0.245*[#   3]+0.245*[#   4]+0.245*[#   7]+0.245*[#   8]
    |psi|^2 = 0.979
==== e(   5) =     0.20029 eV ==== 
     psi = 0.414*[#   1]+0.414*[#   5]+0.042*[#   2]+0.042*[#   6]+0.011*[#   3]
          +0.011*[#   4]+0.011*[#   7]+0.011*[#   8]
    |psi|^2 = 0.956
==== e(   6) =     0.71558 eV ==== 
     psi = 0.247*[#   2]+0.247*[#   6]+0.013*[#   1]+0.013*[#   5]
    |psi|^2 = 0.520
==== e(   7) =     1.25128 eV ==== 
     psi = 0.223*[#   3]+0.223*[#   4]+0.223*[#   7]+0.223*[#   8]+0.004*[#   1]
          +0.004*[#   5]
    |psi|^2 = 0.900
==== e(   8) =     1.32786 eV ==== 
     psi = 0.225*[#   3]+0.225*[#   4]+0.225*[#   7]+0.225*[#   8]
    |psi|^2 = 0.900

 k =   0.0142857143  0.0577350269  0.0000000000
==== e(   1) =   -12.71372 eV ==== 
     psi = 0.476*[#   1]+0.476*[#   5]+0.014*[#   2]+0.014*[#   6]+0.003*[#   3]
          +0.003*[#   4]+0.003*[#   7]+0.003*[#   8]
    |psi|^2 = 0.993
==== e(   2) =    -4.90228 eV ==== 
     psi = 0.433*[#   2]+0.433*[#   6]+0.055*[#   1]+0.055*[#   5]
    |psi|^2 = 0.979
==== e(   3) =    -3.20132 eV ==== 
     psi = 0.227*[#   3]+0.227*[#   4]+0.227*[#   7]+0.227*[#   8]+0.028*[#   1]
          +0.028*[#   5]+0.009*[#   2]+0.009*[#   6]
    |psi|^2 = 0.979
==== e(   4) =    -2.99738 eV ==== 
     psi = 0.245*[#   3]+0.245*[#   4]+0.245*[#   7]+0.245*[#   8]
    |psi|^2 = 0.979
==== e(   5) =     0.29315 eV ==== 
     psi = 0.398*[#   1]+0.398*[#   5]+0.040*[#   2]+0.040*[#   6]+0.020*[#   3]
          +0.020*[#   4]+0.020*[#   7]+0.020*[#   8]
    |psi|^2 = 0.955
==== e(   6) =     0.72480 eV ==== 
     psi = 0.249*[#   2]+0.249*[#   6]+0.013*[#   1]+0.013*[#   5]
    |psi|^2 = 0.524
==== e(   7) =     1.24826 eV ==== 
     psi = 0.220*[#   3]+0.220*[#   4]+0.220*[#   7]+0.220*[#   8]+0.009*[#   1]
          +0.009*[#   5]
    |psi|^2 = 0.898
==== e(   8) =     1.38396 eV ==== 
     psi = 0.224*[#   3]+0.224*[#   4]+0.224*[#   7]+0.224*[#   8]+0.002*[#   1]
          +0.002*[#   5]
    |psi|^2 = 0.899

 k =   0.0142857143  0.0742307489  0.0000000000
==== e(   1) =   -12.69485 eV ==== 
     psi = 0.472*[#   1]+0.472*[#   5]+0.014*[#   2]+0.014*[#   6]+0.005*[#   3]
          +0.005*[#   4]+0.005*[#   7]+0.005*[#   8]
    |psi|^2 = 0.993
==== e(   2) =    -4.89052 eV ==== 
     psi = 0.429*[#   2]+0.429*[#   6]+0.058*[#   1]+0.058*[#   5]+0.001*[#   3]
          +0.001*[#   4]+0.001*[#   7]+0.001*[#   8]
    |psi|^2 = 0.980
==== e(   3) =    -3.34191 eV ==== 
     psi = 0.219*[#   3]+0.219*[#   4]+0.219*[#   7]+0.219*[#   8]+0.038*[#   1]
          +0.038*[#   5]+0.014*[#   2]+0.014*[#   6]
    |psi|^2 = 0.979
==== e(   4) =    -3.03145 eV ==== 
     psi = 0.245*[#   3]+0.245*[#   4]+0.245*[#   7]+0.245*[#   8]
    |psi|^2 = 0.979
==== e(   5) =     0.39389 eV ==== 
     psi = 0.375*[#   1]+0.375*[#   5]+0.038*[#   2]+0.038*[#   6]+0.032*[#   3]
          +0.032*[#   4]+0.032*[#   7]+0.032*[#   8]
    |psi|^2 = 0.953
==== e(   6) =     0.73680 eV ==== 
     psi = 0.252*[#   2]+0.252*[#   6]+0.013*[#   1]+0.013*[#   5]
    |psi|^2 = 0.530
==== e(   7) =     1.25650 eV ==== 
     psi = 0.214*[#   3]+0.214*[#   4]+0.214*[#   7]+0.214*[#   8]+0.020*[#   1]
          +0.020*[#   5]+0.001*[#   2]+0.001*[#   6]
    |psi|^2 = 0.897
==== e(   8) =     1.45796 eV ==== 
     psi = 0.222*[#   3]+0.222*[#   4]+0.222*[#   7]+0.222*[#   8]+0.004*[#   1]
          +0.004*[#   5]
    |psi|^2 = 0.897

 k =   0.0142857143  0.0907264709  0.0000000000
==== e(   1) =   -12.67129 eV ==== 
     psi = 0.467*[#   1]+0.467*[#   5]+0.014*[#   2]+0.014*[#   6]+0.008*[#   3]
          +0.008*[#   4]+0.008*[#   7]+0.008*[#   8]
    |psi|^2 = 0.993
==== e(   2) =    -4.87727 eV ==== 
     psi = 0.423*[#   2]+0.423*[#   6]+0.063*[#   1]+0.063*[#   5]+0.002*[#   3]
          +0.002*[#   4]+0.002*[#   7]+0.002*[#   8]
    |psi|^2 = 0.980
==== e(   3) =    -3.50096 eV ==== 
     psi = 0.210*[#   3]+0.210*[#   4]+0.210*[#   7]+0.210*[#   8]+0.047*[#   1]
          +0.047*[#   5]+0.022*[#   2]+0.022*[#   6]
    |psi|^2 = 0.980
==== e(   4) =    -3.07234 eV ==== 
     psi = 0.245*[#   3]+0.245*[#   4]+0.245*[#   7]+0.245*[#   8]
    |psi|^2 = 0.980
==== e(   5) =     0.48378 eV ==== 
     psi = 0.341*[#   1]+0.341*[#   5]+0.049*[#   3]+0.049*[#   4]+0.049*[#   7]
          +0.049*[#   8]+0.035*[#   6]+0.035*[#   2]
    |psi|^2 = 0.948
==== e(   6) =     0.75152 eV ==== 
     psi = 0.255*[#   2]+0.255*[#   6]+0.013*[#   1]+0.013*[#   5]
    |psi|^2 = 0.538
==== e(   7) =     1.28894 eV ==== 
     psi = 0.202*[#   3]+0.202*[#   4]+0.202*[#   7]+0.202*[#   8]+0.041*[#   1]
          +0.041*[#   5]+0.003*[#   2]+0.003*[#   6]
    |psi|^2 = 0.896
==== e(   8) =     1.54933 eV ==== 
     psi = 0.220*[#   3]+0.220*[#   4]+0.220*[#   7]+0.220*[#   8]+0.007*[#   1]
          +0.007*[#   5]
    |psi|^2 = 0.894

 k =   0.0142857143  0.1072221928  0.0000000000
==== e(   1) =   -12.64304 eV ==== 
     psi = 0.462*[#   1]+0.462*[#   5]+0.013*[#   2]+0.013*[#   6]+0.011*[#   3]
          +0.011*[#   4]+0.011*[#   7]+0.011*[#   8]
    |psi|^2 = 0.993
==== e(   2) =    -4.86415 eV ==== 
     psi = 0.412*[#   2]+0.412*[#   6]+0.070*[#   1]+0.070*[#   5]+0.004*[#   3]
          +0.004*[#   4]+0.004*[#   7]+0.004*[#   8]
    |psi|^2 = 0.981
==== e(   3) =    -3.67161 eV ==== 
     psi = 0.201*[#   3]+0.201*[#   4]+0.201*[#   7]+0.201*[#   8]+0.054*[#   1]
          +0.054*[#   5]+0.034*[#   2]+0.034*[#   6]
    |psi|^2 = 0.980
==== e(   4) =    -3.11912 eV ==== 
     psi = 0.245*[#   3]+0.245*[#   4]+0.245*[#   7]+0.245*[#   8]
    |psi|^2 = 0.980
==== e(   5) =     0.54356 eV ==== 
     psi = 0.295*[#   1]+0.295*[#   5]+0.071*[#   3]+0.071*[#   4]+0.071*[#   7]
          +0.071*[#   8]+0.031*[#   6]+0.031*[#   2]
    |psi|^2 = 0.938
==== e(   6) =     0.76914 eV ==== 
     psi = 0.259*[#   2]+0.259*[#   6]+0.014*[#   1]+0.014*[#   5]+0.002*[#   3]
          +0.002*[#   4]+0.002*[#   7]+0.002*[#   8]
    |psi|^2 = 0.551
==== e(   7) =     1.35949 eV ==== 
     psi = 0.185*[#   3]+0.185*[#   4]+0.185*[#   7]+0.185*[#   8]+0.073*[#   1]
          +0.073*[#   5]+0.006*[#   2]+0.006*[#   6]
    |psi|^2 = 0.896
==== e(   8) =     1.65764 eV ==== 
     psi = 0.217*[#   3]+0.217*[#   4]+0.217*[#   7]+0.217*[#   8]+0.011*[#   1]
          +0.011*[#   5]+0.001*[#   2]+0.001*[#   6]
    |psi|^2 = 0.892

 k =   0.0142857143  0.1237179148  0.0000000000
==== e(   1) =   -12.61013 eV ==== 
     psi = 0.456*[#   1]+0.456*[#   5]+0.014*[#   3]+0.014*[#   4]+0.014*[#   7]
          +0.014*[#   8]+0.013*[#   2]+0.013*[#   6]
    |psi|^2 = 0.993
==== e(   2) =    -4.85414 eV ==== 
     psi = 0.394*[#   2]+0.394*[#   6]+0.080*[#   1]+0.080*[#   5]+0.009*[#   3]
          +0.009*[#   4]+0.009*[#   7]+0.009*[#   8]
    |psi|^2 = 0.982
==== e(   3) =    -3.84670 eV ==== 
     psi = 0.191*[#   3]+0.191*[#   4]+0.191*[#   7]+0.191*[#   8]+0.055*[#   1]
          +0.055*[#   5]+0.053*[#   2]+0.053*[#   6]
    |psi|^2 = 0.980
==== e(   4) =    -3.17078 eV ==== 
     psi = 0.245*[#   3]+0.245*[#   4]+0.245*[#   7]+0.245*[#   8]
    |psi|^2 = 0.981
==== e(   5) =     0.56375 eV ==== 
     psi = 0.249*[#   1]+0.249*[#   5]+0.092*[#   3]+0.092*[#   4]+0.092*[#   7]
          +0.092*[#   8]+0.028*[#   2]+0.028*[#   6]
    |psi|^2 = 0.924
==== e(   6) =     0.78944 eV ==== 
     psi = 0.262*[#   2]+0.262*[#   6]+0.014*[#   1]+0.014*[#   5]+0.004*[#   3]
          +0.004*[#   4]+0.004*[#   7]+0.004*[#   8]
    |psi|^2 = 0.569
==== e(   7) =     1.47342 eV ==== 
     psi = 0.168*[#   3]+0.168*[#   4]+0.168*[#   7]+0.168*[#   8]+0.104*[#   1]
          +0.104*[#   5]+0.009*[#   2]+0.009*[#   6]
    |psi|^2 = 0.897
==== e(   8) =     1.78275 eV ==== 
     psi = 0.212*[#   3]+0.212*[#   4]+0.212*[#   7]+0.212*[#   8]+0.018*[#   1]
          +0.018*[#   5]+0.002*[#   2]+0.002*[#   6]
    |psi|^2 = 0.889

 k =   0.0142857143  0.1402136368  0.0000000000
==== e(   1) =   -12.57258 eV ==== 
     psi = 0.450*[#   1]+0.450*[#   5]+0.017*[#   3]+0.017*[#   4]+0.017*[#   7]
          +0.017*[#   8]+0.013*[#   2]+0.013*[#   6]
    |psi|^2 = 0.993
==== e(   2) =    -4.85307 eV ==== 
     psi = 0.362*[#   2]+0.362*[#   6]+0.095*[#   1]+0.095*[#   5]+0.017*[#   3]
          +0.017*[#   4]+0.017*[#   7]+0.017*[#   8]
    |psi|^2 = 0.984
==== e(   3) =    -4.01712 eV ==== 
     psi = 0.177*[#   3]+0.177*[#   4]+0.177*[#   7]+0.177*[#   8]+0.085*[#   2]
          +0.085*[#   6]+0.050*[#   1]+0.050*[#   5]
    |psi|^2 = 0.979
==== e(   4) =    -3.22642 eV ==== 
     psi = 0.245*[#   3]+0.245*[#   4]+0.245*[#   7]+0.245*[#   8]
    |psi|^2 = 0.982
==== e(   5) =     0.54931 eV ==== 
     psi = 0.215*[#   1]+0.214*[#   5]+0.108*[#   3]+0.108*[#   4]+0.108*[#   7]
          +0.108*[#   8]+0.026*[#   2]+0.026*[#   6]
    |psi|^2 = 0.911
==== e(   6) =     0.81112 eV ==== 
     psi = 0.268*[#   2]+0.268*[#   6]+0.014*[#   1]+0.014*[#   5]+0.006*[#   3]
          +0.006*[#   4]+0.006*[#   7]+0.006*[#   8]
    |psi|^2 = 0.588
==== e(   7) =     1.62280 eV ==== 
     psi = 0.157*[#   3]+0.157*[#   4]+0.157*[#   7]+0.157*[#   8]+0.123*[#   1]
          +0.123*[#   5]+0.011*[#   2]+0.011*[#   6]
    |psi|^2 = 0.897
==== e(   8) =     1.92471 eV ==== 
     psi = 0.205*[#   3]+0.205*[#   4]+0.205*[#   7]+0.205*[#   8]+0.030*[#   1]
          +0.030*[#   5]+0.003*[#   2]+0.003*[#   6]
    |psi|^2 = 0.886

 k =   0.0142857143  0.1567093588  0.0000000000
==== e(   1) =   -12.53041 eV ==== 
     psi = 0.443*[#   1]+0.443*[#   5]+0.020*[#   3]+0.020*[#   4]+0.020*[#   7]
          +0.020*[#   8]+0.012*[#   2]+0.012*[#   6]
    |psi|^2 = 0.993
==== e(   2) =    -4.87220 eV ==== 
     psi = 0.306*[#   2]+0.306*[#   6]+0.119*[#   1]+0.119*[#   5]+0.034*[#   3]
          +0.034*[#   4]+0.034*[#   7]+0.034*[#   8]
    |psi|^2 = 0.985
==== e(   3) =    -4.16915 eV ==== 
     psi = 0.155*[#   3]+0.155*[#   4]+0.155*[#   7]+0.155*[#   8]+0.143*[#   2]
          +0.143*[#   6]+0.037*[#   1]+0.037*[#   5]
    |psi|^2 = 0.978
==== e(   4) =    -3.28511 eV ==== 
     psi = 0.245*[#   3]+0.245*[#   4]+0.245*[#   7]+0.245*[#   8]
    |psi|^2 = 0.982
==== e(   5) =     0.51085 eV ==== 
     psi = 0.193*[#   1]+0.193*[#   5]+0.117*[#   3]+0.117*[#   4]+0.117*[#   7]
          +0.117*[#   8]+0.024*[#   2]+0.024*[#   6]
    |psi|^2 = 0.903
==== e(   6) =     0.83280 eV ==== 
     psi = 0.275*[#   2]+0.275*[#   6]+0.012*[#   1]+0.012*[#   5]+0.008*[#   3]
          +0.008*[#   4]+0.008*[#   7]+0.008*[#   8]
    |psi|^2 = 0.607
==== e(   7) =     1.79423 eV ==== 
     psi = 0.155*[#   3]+0.155*[#   4]+0.155*[#   7]+0.155*[#   8]+0.125*[#   1]
          +0.125*[#   5]+0.012*[#   2]+0.011*[#   6]
    |psi|^2 = 0.894
==== e(   8) =     2.08370 eV ==== 
     psi = 0.196*[#   3]+0.196*[#   4]+0.196*[#   7]+0.196*[#   8]+0.045*[#   1]
          +0.045*[#   5]+0.004*[#   2]+0.004*[#   6]
    |psi|^2 = 0.884

 k =   0.0142857143  0.1732050808  0.0000000000
==== e(   1) =   -12.48366 eV ==== 
     psi = 0.436*[#   1]+0.436*[#   5]+0.024*[#   3]+0.024*[#   4]+0.024*[#   7]
          +0.024*[#   8]+0.012*[#   2]+0.012*[#   6]
    |psi|^2 = 0.993
==== e(   2) =    -4.92927 eV ==== 
     psi = 0.220*[#   2]+0.220*[#   6]+0.146*[#   1]+0.146*[#   5]+0.064*[#   3]
          +0.064*[#   4]+0.064*[#   7]+0.064*[#   8]
    |psi|^2 = 0.987
==== e(   3) =    -4.28316 eV ==== 
     psi = 0.229*[#   2]+0.229*[#   6]+0.121*[#   3]+0.121*[#   4]+0.121*[#   7]
          +0.121*[#   8]+0.018*[#   1]+0.018*[#   5]
    |psi|^2 = 0.977
==== e(   4) =    -3.34602 eV ==== 
     psi = 0.246*[#   3]+0.246*[#   4]+0.246*[#   7]+0.246*[#   8]
    |psi|^2 = 0.983
==== e(   5) =     0.45707 eV ==== 
     psi = 0.181*[#   1]+0.180*[#   5]+0.123*[#   3]+0.123*[#   4]+0.123*[#   7]
          +0.123*[#   8]+0.023*[#   2]+0.023*[#   6]
    |psi|^2 = 0.898
==== e(   6) =     0.85334 eV ==== 
     psi = 0.285*[#   2]+0.285*[#   6]+0.011*[#   1]+0.011*[#   5]+0.009*[#   3]
          +0.009*[#   4]+0.009*[#   7]+0.009*[#   8]
    |psi|^2 = 0.627
==== e(   7) =     1.97626 eV ==== 
     psi = 0.159*[#   3]+0.159*[#   4]+0.159*[#   7]+0.159*[#   8]+0.115*[#   1]
          +0.115*[#   5]+0.011*[#   2]+0.011*[#   6]
    |psi|^2 = 0.888
==== e(   8) =     2.25869 eV ==== 
     psi = 0.184*[#   3]+0.184*[#   4]+0.184*[#   7]+0.184*[#   8]+0.064*[#   1]
          +0.064*[#   5]+0.007*[#   2]+0.007*[#   6]
    |psi|^2 = 0.880

 k =   0.0142857143  0.1897008027  0.0000000000
==== e(   1) =   -12.43236 eV ==== 
     psi = 0.430*[#   1]+0.430*[#   5]+0.028*[#   3]+0.028*[#   4]+0.028*[#   7]
          +0.028*[#   8]+0.012*[#   2]+0.012*[#   6]
    |psi|^2 = 0.993
==== e(   2) =    -5.03776 eV ==== 
     psi = 0.168*[#   1]+0.168*[#   5]+0.132*[#   2]+0.132*[#   6]+0.097*[#   3]
          +0.097*[#   4]+0.097*[#   7]+0.097*[#   8]
    |psi|^2 = 0.988
==== e(   3) =    -4.34417 eV ==== 
     psi = 0.317*[#   2]+0.317*[#   6]+0.083*[#   3]+0.083*[#   4]+0.083*[#   7]
          +0.083*[#   8]+0.004*[#   1]+0.004*[#   5]
    |psi|^2 = 0.977
==== e(   4) =    -3.40833 eV ==== 
     psi = 0.246*[#   3]+0.246*[#   4]+0.246*[#   7]+0.246*[#   8]
    |psi|^2 = 0.983
==== e(   5) =     0.39374 eV ==== 
     psi = 0.174*[#   1]+0.174*[#   5]+0.125*[#   3]+0.125*[#   4]+0.125*[#   7]
          +0.125*[#   8]+0.022*[#   2]+0.022*[#   6]
    |psi|^2 = 0.894
==== e(   6) =     0.87140 eV ==== 
     psi = 0.297*[#   2]+0.297*[#   6]+0.011*[#   1]+0.011*[#   5]+0.009*[#   3]
          +0.009*[#   4]+0.009*[#   7]+0.009*[#   8]
    |psi|^2 = 0.651
==== e(   7) =     2.16135 eV ==== 
     psi = 0.166*[#   3]+0.166*[#   4]+0.166*[#   7]+0.166*[#   8]+0.099*[#   1]
          +0.099*[#   5]+0.010*[#   2]+0.010*[#   6]
    |psi|^2 = 0.880
==== e(   8) =     2.44463 eV ==== 
     psi = 0.172*[#   3]+0.172*[#   4]+0.172*[#   7]+0.172*[#   8]+0.080*[#   1]
          +0.080*[#   5]+0.010*[#   2]+0.010*[#   6]
    |psi|^2 = 0.868

 k =   0.0142857143  0.2061965247  0.0000000000
==== e(   1) =   -12.37656 eV ==== 
     psi = 0.423*[#   1]+0.423*[#   5]+0.031*[#   3]+0.031*[#   4]+0.031*[#   7]
          +0.031*[#   8]+0.011*[#   2]+0.011*[#   6]
    |psi|^2 = 0.993
==== e(   2) =    -5.19122 eV ==== 
     psi = 0.179*[#   1]+0.179*[#   5]+0.121*[#   3]+0.121*[#   4]+0.121*[#   7]
          +0.121*[#   8]+0.072*[#   2]+0.072*[#   6]
    |psi|^2 = 0.989
==== e(   3) =    -4.35749 eV ==== 
     psi = 0.377*[#   2]+0.377*[#   6]+0.056*[#   3]+0.056*[#   4]+0.056*[#   7]
          +0.056*[#   8]
    |psi|^2 = 0.978
==== e(   4) =    -3.47139 eV ==== 
     psi = 0.246*[#   3]+0.246*[#   4]+0.246*[#   7]+0.246*[#   8]
    |psi|^2 = 0.984
==== e(   5) =     0.32453 eV ==== 
     psi = 0.172*[#   1]+0.172*[#   5]+0.126*[#   3]+0.126*[#   4]+0.126*[#   7]
          +0.126*[#   8]+0.021*[#   2]+0.021*[#   6]
    |psi|^2 = 0.891
==== e(   6) =     0.88521 eV ==== 
     psi = 0.311*[#   2]+0.311*[#   6]+0.010*[#   1]+0.010*[#   5]+0.009*[#   3]
          +0.009*[#   4]+0.009*[#   7]+0.009*[#   8]
    |psi|^2 = 0.678
==== e(   7) =     2.34446 eV ==== 
     psi = 0.169*[#   3]+0.169*[#   4]+0.169*[#   7]+0.169*[#   8]+0.085*[#   1]
          +0.085*[#   5]+0.010*[#   2]+0.010*[#   6]
    |psi|^2 = 0.864
==== e(   8) =     2.62235 eV ==== 
     psi = 0.155*[#   3]+0.155*[#   4]+0.155*[#   7]+0.155*[#   8]+0.076*[#   1]
          +0.076*[#   5]+0.018*[#   2]+0.018*[#   6]
    |psi|^2 = 0.807

 k =   0.0142857143  0.2226922467  0.0000000000
==== e(   1) =   -12.31630 eV ==== 
     psi = 0.416*[#   1]+0.416*[#   5]+0.035*[#   3]+0.035*[#   4]+0.035*[#   7]
          +0.035*[#   8]+0.011*[#   2]+0.011*[#   6]
    |psi|^2 = 0.993
==== e(   2) =    -5.37253 eV ==== 
     psi = 0.184*[#   1]+0.184*[#   5]+0.135*[#   3]+0.135*[#   4]+0.135*[#   7]
          +0.135*[#   8]+0.040*[#   2]+0.040*[#   6]
    |psi|^2 = 0.988
==== e(   3) =    -4.33935 eV ==== 
     psi = 0.409*[#   2]+0.409*[#   6]+0.039*[#   3]+0.039*[#   4]+0.039*[#   7]
          +0.039*[#   8]+0.002*[#   1]+0.002*[#   5]
    |psi|^2 = 0.979
==== e(   4) =    -3.53454 eV ==== 
     psi = 0.246*[#   3]+0.246*[#   4]+0.246*[#   7]+0.246*[#   8]
    |psi|^2 = 0.985
==== e(   5) =     0.25187 eV ==== 
     psi = 0.172*[#   1]+0.172*[#   5]+0.125*[#   3]+0.125*[#   4]+0.125*[#   7]
          +0.125*[#   8]+0.022*[#   2]+0.022*[#   6]
    |psi|^2 = 0.888
==== e(   6) =     0.89250 eV ==== 
     psi = 0.326*[#   2]+0.327*[#   6]+0.011*[#   1]+0.011*[#   5]+0.009*[#   3]
          +0.009*[#   4]+0.009*[#   7]+0.009*[#   8]
    |psi|^2 = 0.709
==== e(   7) =     2.51464 eV ==== 
     psi = 0.154*[#   3]+0.154*[#   4]+0.154*[#   7]+0.154*[#   8]+0.078*[#   1]
          +0.078*[#   5]+0.016*[#   2]+0.016*[#   6]
    |psi|^2 = 0.806
==== e(   8) =     2.73676 eV ==== 
     psi = 0.121*[#   3]+0.121*[#   4]+0.121*[#   7]+0.121*[#   8]+0.038*[#   2]
          +0.038*[#   6]+0.025*[#   1]+0.025*[#   5]
    |psi|^2 = 0.608

 k =   0.0142857143  0.2391879687  0.0000000000
==== e(   1) =   -12.25165 eV ==== 
     psi = 0.409*[#   1]+0.409*[#   5]+0.038*[#   3]+0.038*[#   4]+0.038*[#   7]
          +0.038*[#   8]+0.011*[#   2]+0.011*[#   6]
    |psi|^2 = 0.992
==== e(   2) =    -5.56864 eV ==== 
     psi = 0.187*[#   1]+0.187*[#   5]+0.142*[#   3]+0.142*[#   4]+0.142*[#   7]
          +0.142*[#   8]+0.024*[#   2]+0.024*[#   6]
    |psi|^2 = 0.988
==== e(   3) =    -4.30207 eV ==== 
     psi = 0.426*[#   2]+0.426*[#   6]+0.029*[#   3]+0.029*[#   4]+0.029*[#   7]
          +0.029*[#   8]+0.006*[#   1]+0.006*[#   5]
    |psi|^2 = 0.980
==== e(   4) =    -3.59725 eV ==== 
     psi = 0.246*[#   3]+0.246*[#   4]+0.246*[#   7]+0.246*[#   8]
    |psi|^2 = 0.985
==== e(   5) =     0.17747 eV ==== 
     psi = 0.174*[#   1]+0.174*[#   5]+0.124*[#   3]+0.124*[#   4]+0.124*[#   7]
          +0.124*[#   8]+0.022*[#   2]+0.022*[#   6]
    |psi|^2 = 0.887
==== e(   6) =     0.89054 eV ==== 
     psi = 0.344*[#   2]+0.344*[#   6]+0.011*[#   1]+0.011*[#   5]+0.008*[#   3]
          +0.008*[#   4]+0.008*[#   7]+0.008*[#   8]
    |psi|^2 = 0.743
==== e(   7) =     2.61631 eV ==== 
     psi = 0.083*[#   3]+0.083*[#   4]+0.083*[#   7]+0.083*[#   8]+0.061*[#   1]
          +0.061*[#   5]+0.041*[#   2]+0.041*[#   6]
    |psi|^2 = 0.536
==== e(   8) =     2.82095 eV ==== 
     psi = 0.158*[#   3]+0.158*[#   4]+0.158*[#   7]+0.158*[#   8]+0.022*[#   2]
          +0.022*[#   6]+0.002*[#   1]+0.002*[#   5]
    |psi|^2 = 0.678

 k =   0.0142857143  0.2556836906  0.0000000000
==== e(   1) =   -12.18267 eV ==== 
     psi = 0.402*[#   1]+0.402*[#   5]+0.042*[#   3]+0.042*[#   4]+0.042*[#   7]
          +0.042*[#   8]+0.010*[#   2]+0.010*[#   6]
    |psi|^2 = 0.992
==== e(   2) =    -5.77223 eV ==== 
     psi = 0.190*[#   1]+0.190*[#   5]+0.145*[#   3]+0.145*[#   4]+0.145*[#   7]
          +0.145*[#   8]+0.014*[#   2]+0.014*[#   6]
    |psi|^2 = 0.988
==== e(   3) =    -4.25241 eV ==== 
     psi = 0.435*[#   2]+0.435*[#   6]+0.023*[#   3]+0.023*[#   4]+0.023*[#   7]
          +0.023*[#   8]+0.009*[#   1]+0.009*[#   5]
    |psi|^2 = 0.981
==== e(   4) =    -3.65905 eV ==== 
     psi = 0.246*[#   3]+0.246*[#   4]+0.246*[#   7]+0.246*[#   8]
    |psi|^2 = 0.985
==== e(   5) =     0.10251 eV ==== 
     psi = 0.176*[#   1]+0.176*[#   5]+0.122*[#   3]+0.122*[#   4]+0.122*[#   7]
          +0.122*[#   8]+0.023*[#   2]+0.023*[#   6]
    |psi|^2 = 0.886
==== e(   6) =     0.87628 eV ==== 
     psi = 0.361*[#   2]+0.361*[#   6]+0.012*[#   1]+0.012*[#   5]+0.008*[#   3]
          +0.008*[#   4]+0.008*[#   7]+0.008*[#   8]
    |psi|^2 = 0.779
==== e(   7) =     2.61186 eV ==== 
     psi = 0.047*[#   2]+0.047*[#   6]+0.041*[#   3]+0.041*[#   4]+0.041*[#   7]
          +0.041*[#   8]+0.034*[#   1]+0.034*[#   5]
    |psi|^2 = 0.327
==== e(   8) =     2.98064 eV ==== 
     psi = 0.190*[#   3]+0.190*[#   4]+0.190*[#   7]+0.190*[#   8]+0.012*[#   1]
          +0.012*[#   5]+0.007*[#   2]+0.007*[#   6]
    |psi|^2 = 0.798

 k =   0.0142857143  0.2721794126  0.0000000000
==== e(   1) =   -12.10945 eV ==== 
     psi = 0.396*[#   1]+0.396*[#   5]+0.045*[#   3]+0.045*[#   4]+0.045*[#   7]
          +0.045*[#   8]+0.010*[#   2]+0.010*[#   6]
    |psi|^2 = 0.992
==== e(   2) =    -5.97929 eV ==== 
     psi = 0.192*[#   1]+0.192*[#   5]+0.146*[#   3]+0.146*[#   4]+0.146*[#   7]
          +0.146*[#   8]+0.009*[#   2]+0.009*[#   6]
    |psi|^2 = 0.988
==== e(   3) =    -4.19392 eV ==== 
     psi = 0.440*[#   2]+0.440*[#   6]+0.020*[#   3]+0.020*[#   4]+0.020*[#   7]
          +0.020*[#   8]+0.012*[#   1]+0.012*[#   5]
    |psi|^2 = 0.982
==== e(   4) =    -3.71949 eV ==== 
     psi = 0.246*[#   3]+0.246*[#   4]+0.246*[#   7]+0.246*[#   8]
    |psi|^2 = 0.986
==== e(   5) =     0.02793 eV ==== 
     psi = 0.179*[#   1]+0.179*[#   5]+0.119*[#   3]+0.119*[#   4]+0.119*[#   7]
          +0.119*[#   8]+0.025*[#   2]+0.025*[#   6]
    |psi|^2 = 0.885
==== e(   6) =     0.84681 eV ==== 
     psi = 0.378*[#   2]+0.378*[#   6]+0.013*[#   1]+0.013*[#   5]+0.008*[#   3]
          +0.008*[#   4]+0.008*[#   7]+0.008*[#   8]
    |psi|^2 = 0.813
==== e(   7) =     2.57937 eV ==== 
     psi = 0.037*[#   2]+0.037*[#   6]+0.032*[#   3]+0.032*[#   4]+0.032*[#   7]
          +0.032*[#   8]+0.022*[#   1]+0.022*[#   5]
    |psi|^2 = 0.245
==== e(   8) =     3.16948 eV ==== 
     psi = 0.197*[#   3]+0.197*[#   4]+0.197*[#   7]+0.197*[#   8]+0.014*[#   1]
          +0.014*[#   5]+0.004*[#   2]+0.004*[#   6]
    |psi|^2 = 0.825

 k =   0.0142857143  0.2886751346  0.0000000000
==== e(   1) =   -12.03208 eV ==== 
     psi = 0.390*[#   1]+0.390*[#   5]+0.048*[#   3]+0.048*[#   4]+0.048*[#   7]
          +0.048*[#   8]+0.009*[#   2]+0.009*[#   6]
    |psi|^2 = 0.992
==== e(   2) =    -6.18747 eV ==== 
     psi = 0.195*[#   1]+0.195*[#   5]+0.146*[#   3]+0.146*[#   4]+0.146*[#   7]
          +0.146*[#   8]+0.006*[#   2]+0.006*[#   6]
    |psi|^2 = 0.988
==== e(   3) =    -4.12857 eV ==== 
     psi = 0.442*[#   2]+0.442*[#   6]+0.017*[#   3]+0.017*[#   4]+0.017*[#   7]
          +0.017*[#   8]+0.014*[#   1]+0.014*[#   5]
    |psi|^2 = 0.983
==== e(   4) =    -3.77818 eV ==== 
     psi = 0.246*[#   3]+0.246*[#   4]+0.246*[#   7]+0.246*[#   8]
    |psi|^2 = 0.986
==== e(   5) =    -0.04560 eV ==== 
     psi = 0.183*[#   1]+0.183*[#   5]+0.117*[#   3]+0.117*[#   4]+0.117*[#   7]
          +0.117*[#   8]+0.027*[#   2]+0.027*[#   6]
    |psi|^2 = 0.885
==== e(   6) =     0.79990 eV ==== 
     psi = 0.393*[#   2]+0.393*[#   6]+0.014*[#   1]+0.014*[#   5]+0.007*[#   3]
          +0.007*[#   4]+0.007*[#   7]+0.007*[#   8]
    |psi|^2 = 0.844
==== e(   7) =     2.55117 eV ==== 
     psi = 0.029*[#   3]+0.029*[#   4]+0.029*[#   7]+0.029*[#   8]+0.024*[#   2]
          +0.024*[#   6]+0.016*[#   1]+0.016*[#   5]
    |psi|^2 = 0.196
==== e(   8) =     3.36618 eV ==== 
     psi = 0.200*[#   3]+0.200*[#   4]+0.200*[#   7]+0.200*[#   8]+0.013*[#   1]
          +0.013*[#   5]+0.003*[#   2]+0.003*[#   6]
    |psi|^2 = 0.832

 k =   0.0142857143  0.3051708566  0.0000000000
==== e(   1) =   -11.95069 eV ==== 
     psi = 0.384*[#   1]+0.384*[#   5]+0.051*[#   3]+0.051*[#   4]+0.051*[#   7]
          +0.051*[#   8]+0.009*[#   2]+0.009*[#   6]
    |psi|^2 = 0.992
==== e(   2) =    -6.39525 eV ==== 
     psi = 0.198*[#   1]+0.198*[#   5]+0.146*[#   3]+0.146*[#   4]+0.146*[#   7]
          +0.146*[#   8]+0.004*[#   2]+0.004*[#   6]
    |psi|^2 = 0.988
==== e(   3) =    -4.05768 eV ==== 
     psi = 0.443*[#   2]+0.443*[#   6]+0.017*[#   1]+0.017*[#   5]+0.016*[#   3]
          +0.016*[#   4]+0.016*[#   7]+0.016*[#   8]
    |psi|^2 = 0.984
==== e(   4) =    -3.83470 eV ==== 
     psi = 0.246*[#   3]+0.246*[#   4]+0.246*[#   7]+0.246*[#   8]+0.002*[#   2]
          +0.002*[#   6]
    |psi|^2 = 0.987
==== e(   5) =    -0.11761 eV ==== 
     psi = 0.186*[#   1]+0.186*[#   5]+0.114*[#   3]+0.114*[#   4]+0.114*[#   7]
          +0.114*[#   8]+0.029*[#   2]+0.029*[#   6]
    |psi|^2 = 0.885
==== e(   6) =     0.73465 eV ==== 
     psi = 0.404*[#   2]+0.404*[#   6]+0.016*[#   1]+0.016*[#   5]+0.007*[#   3]
          +0.007*[#   4]+0.007*[#   7]+0.007*[#   8]
    |psi|^2 = 0.869
==== e(   7) =     2.53710 eV ==== 
     psi = 0.027*[#   3]+0.027*[#   4]+0.027*[#   7]+0.027*[#   8]+0.014*[#   2]
          +0.014*[#   6]+0.013*[#   1]+0.013*[#   5]
    |psi|^2 = 0.163
==== e(   8) =     3.56513 eV ==== 
     psi = 0.202*[#   3]+0.202*[#   4]+0.202*[#   7]+0.202*[#   8]+0.011*[#   1]
          +0.011*[#   5]+0.002*[#   2]+0.002*[#   6]
    |psi|^2 = 0.835

 k =   0.0142857143  0.3216665785  0.0000000000
==== e(   1) =   -11.86540 eV ==== 
     psi = 0.379*[#   1]+0.379*[#   5]+0.054*[#   3]+0.054*[#   4]+0.054*[#   7]
          +0.054*[#   8]+0.008*[#   2]+0.008*[#   6]
    |psi|^2 = 0.992
==== e(   2) =    -6.60159 eV ==== 
     psi = 0.200*[#   1]+0.200*[#   5]+0.145*[#   3]+0.145*[#   4]+0.145*[#   7]
          +0.145*[#   8]+0.003*[#   2]+0.003*[#   6]
    |psi|^2 = 0.987
==== e(   3) =    -3.98273 eV ==== 
     psi = 0.436*[#   2]+0.436*[#   6]+0.019*[#   1]+0.019*[#   3]+0.019*[#   4]
          +0.019*[#   5]+0.019*[#   7]+0.019*[#   8]
    |psi|^2 = 0.984
==== e(   4) =    -3.88805 eV ==== 
     psi = 0.242*[#   3]+0.242*[#   4]+0.242*[#   7]+0.242*[#   8]+0.009*[#   2]
          +0.009*[#   6]
    |psi|^2 = 0.987
==== e(   5) =    -0.18770 eV ==== 
     psi = 0.189*[#   1]+0.189*[#   5]+0.111*[#   3]+0.111*[#   4]+0.111*[#   7]
          +0.111*[#   8]+0.033*[#   2]+0.033*[#   6]
    |psi|^2 = 0.886
==== e(   6) =     0.65174 eV ==== 
     psi = 0.410*[#   2]+0.410*[#   6]+0.018*[#   1]+0.018*[#   5]+0.008*[#   3]
          +0.008*[#   4]+0.008*[#   7]+0.008*[#   8]
    |psi|^2 = 0.887
==== e(   7) =     2.54073 eV ==== 
     psi = 0.027*[#   3]+0.027*[#   4]+0.027*[#   7]+0.027*[#   8]+0.011*[#   1]
          +0.011*[#   5]+0.006*[#   2]+0.006*[#   6]
    |psi|^2 = 0.142
==== e(   8) =     3.76263 eV ==== 
     psi = 0.203*[#   3]+0.203*[#   4]+0.203*[#   7]+0.203*[#   8]+0.009*[#   1]
          +0.009*[#   5]+0.002*[#   2]+0.002*[#   6]
    |psi|^2 = 0.835

 k =   0.0142857143  0.3381623005  0.0000000000
==== e(   1) =   -11.77641 eV ==== 
     psi = 0.374*[#   1]+0.374*[#   5]+0.057*[#   3]+0.057*[#   4]+0.057*[#   7]
[...]
          +0.106*[#   8]
    |psi|^2 = 0.990
==== e(   3) =    -5.98121 eV ==== 
     psi = 0.243*[#   3]+0.243*[#   4]+0.243*[#   7]+0.243*[#   8]+0.005*[#   1]
          +0.005*[#   5]
    |psi|^2 = 0.982
==== e(   4) =    -2.28642 eV ==== 
     psi = 0.447*[#   2]+0.447*[#   6]+0.025*[#   1]+0.025*[#   5]+0.011*[#   3]
          +0.011*[#   4]+0.011*[#   7]+0.011*[#   8]
    |psi|^2 = 0.987
==== e(   5) =    -1.27724 eV ==== 
     psi = 0.440*[#   6]+0.439*[#   2]+0.028*[#   1]+0.028*[#   5]+0.011*[#   3]
          +0.011*[#   4]+0.011*[#   7]+0.011*[#   8]
    |psi|^2 = 0.980
==== e(   6) =     2.38080 eV ==== 
     psi = 0.111*[#   3]+0.111*[#   4]+0.111*[#   7]+0.111*[#   8]
    |psi|^2 = 0.447
==== e(   7) =     3.29512 eV ==== 
     psi = 0.063*[#   1]+0.064*[#   5]+0.059*[#   3]+0.059*[#   4]+0.059*[#   7]
          +0.059*[#   8]+0.015*[#   2]+0.015*[#   6]
    |psi|^2 = 0.394
==== e(   8) =     3.74950 eV ==== 
     psi = 0.137*[#   1]+0.137*[#   5]+0.093*[#   3]+0.093*[#   4]+0.093*[#   7]
          +0.093*[#   8]+0.026*[#   2]+0.026*[#   6]
    |psi|^2 = 0.694

 k =   0.2857142857  0.5278631033  0.0000000000
==== e(   1) =    -9.97672 eV ==== 
     psi = 0.315*[#   1]+0.315*[#   5]+0.089*[#   3]+0.089*[#   4]+0.089*[#   7]
          +0.089*[#   8]+0.002*[#   2]+0.002*[#   6]
    |psi|^2 = 0.991
==== e(   2) =    -9.07601 eV ==== 
     psi = 0.285*[#   1]+0.285*[#   5]+0.105*[#   3]+0.105*[#   4]+0.105*[#   7]
          +0.105*[#   8]
    |psi|^2 = 0.990
==== e(   3) =    -6.02001 eV ==== 
     psi = 0.243*[#   3]+0.243*[#   4]+0.243*[#   7]+0.243*[#   8]+0.004*[#   1]
          +0.004*[#   5]
    |psi|^2 = 0.981
==== e(   4) =    -2.19371 eV ==== 
     psi = 0.447*[#   2]+0.447*[#   6]+0.025*[#   1]+0.025*[#   5]+0.011*[#   3]
          +0.011*[#   4]+0.011*[#   7]+0.011*[#   8]
    |psi|^2 = 0.987
==== e(   5) =    -1.36950 eV ==== 
     psi = 0.440*[#   6]+0.440*[#   2]+0.028*[#   1]+0.028*[#   5]+0.011*[#   3]
          +0.011*[#   4]+0.011*[#   7]+0.011*[#   8]
    |psi|^2 = 0.980
==== e(   6) =     2.34055 eV ==== 
     psi = 0.112*[#   3]+0.112*[#   4]+0.112*[#   7]+0.112*[#   8]
    |psi|^2 = 0.448
==== e(   7) =     3.31361 eV ==== 
     psi = 0.076*[#   1]+0.076*[#   5]+0.063*[#   3]+0.063*[#   4]+0.063*[#   7]
          +0.063*[#   8]+0.016*[#   2]+0.016*[#   6]
    |psi|^2 = 0.436
==== e(   8) =     3.97620 eV ==== 
     psi = 0.113*[#   1]+0.113*[#   5]+0.079*[#   3]+0.079*[#   4]+0.079*[#   7]
          +0.079*[#   8]+0.021*[#   2]+0.021*[#   6]
    |psi|^2 = 0.581

 k =   0.2857142857  0.5443588252  0.0000000000
==== e(   1) =    -9.88677 eV ==== 
     psi = 0.314*[#   1]+0.314*[#   5]+0.090*[#   3]+0.090*[#   4]+0.090*[#   7]
          +0.090*[#   8]+0.002*[#   2]+0.002*[#   6]
    |psi|^2 = 0.991
==== e(   2) =    -9.16827 eV ==== 
     psi = 0.287*[#   1]+0.287*[#   5]+0.104*[#   3]+0.104*[#   4]+0.104*[#   7]
          +0.104*[#   8]+0.001*[#   2]+0.001*[#   6]
    |psi|^2 = 0.990
==== e(   3) =    -6.04779 eV ==== 
     psi = 0.244*[#   3]+0.244*[#   4]+0.244*[#   7]+0.244*[#   8]+0.003*[#   1]
          +0.003*[#   5]
    |psi|^2 = 0.981
==== e(   4) =    -2.11096 eV ==== 
     psi = 0.447*[#   2]+0.447*[#   6]+0.026*[#   1]+0.026*[#   5]+0.010*[#   3]
          +0.010*[#   4]+0.010*[#   7]+0.010*[#   8]
    |psi|^2 = 0.987
==== e(   5) =    -1.45190 eV ==== 
     psi = 0.441*[#   6]+0.441*[#   2]+0.027*[#   1]+0.027*[#   5]+0.011*[#   3]
          +0.011*[#   4]+0.011*[#   7]+0.011*[#   8]
    |psi|^2 = 0.981
==== e(   6) =     2.31149 eV ==== 
     psi = 0.112*[#   3]+0.112*[#   4]+0.112*[#   7]+0.112*[#   8]+0.001*[#   2]
          +0.001*[#   6]
    |psi|^2 = 0.449
==== e(   7) =     3.31656 eV ==== 
     psi = 0.083*[#   1]+0.083*[#   5]+0.064*[#   3]+0.064*[#   4]+0.064*[#   7]
          +0.064*[#   8]+0.017*[#   2]+0.017*[#   6]
    |psi|^2 = 0.459
==== e(   8) =     4.20835 eV ==== 
     psi = 0.090*[#   1]+0.090*[#   5]+0.062*[#   3]+0.062*[#   4]+0.062*[#   7]
          +0.062*[#   8]+0.016*[#   2]+0.016*[#   6]
    |psi|^2 = 0.460

 k =   0.2857142857  0.5608545472  0.0000000000
==== e(   1) =    -9.81889 eV ==== 
     psi = 0.313*[#   1]+0.313*[#   5]+0.090*[#   3]+0.090*[#   4]+0.090*[#   7]
          +0.090*[#   8]+0.002*[#   2]+0.002*[#   6]
    |psi|^2 = 0.991
==== e(   2) =    -9.23755 eV ==== 
     psi = 0.288*[#   1]+0.288*[#   5]+0.103*[#   3]+0.103*[#   4]+0.103*[#   7]
          +0.103*[#   8]+0.001*[#   2]+0.001*[#   6]
    |psi|^2 = 0.990
==== e(   3) =    -6.06450 eV ==== 
     psi = 0.244*[#   3]+0.244*[#   4]+0.244*[#   7]+0.244*[#   8]+0.003*[#   1]
          +0.003*[#   5]
    |psi|^2 = 0.981
==== e(   4) =    -2.04884 eV ==== 
     psi = 0.447*[#   2]+0.447*[#   6]+0.026*[#   1]+0.026*[#   5]+0.010*[#   3]
          +0.010*[#   4]+0.010*[#   7]+0.010*[#   8]
    |psi|^2 = 0.987
==== e(   5) =    -1.51381 eV ==== 
     psi = 0.441*[#   6]+0.441*[#   2]+0.027*[#   1]+0.027*[#   5]+0.011*[#   3]
          +0.011*[#   4]+0.011*[#   7]+0.011*[#   8]
    |psi|^2 = 0.981
==== e(   6) =     2.29392 eV ==== 
     psi = 0.112*[#   3]+0.112*[#   4]+0.112*[#   7]+0.112*[#   8]+0.001*[#   2]
          +0.001*[#   6]
    |psi|^2 = 0.450
==== e(   7) =     3.31603 eV ==== 
     psi = 0.087*[#   1]+0.087*[#   5]+0.065*[#   3]+0.065*[#   4]+0.065*[#   7]
          +0.065*[#   8]+0.018*[#   2]+0.018*[#   6]
    |psi|^2 = 0.470
==== e(   8) =     4.41162 eV ==== 
     psi = 0.064*[#   5]+0.064*[#   1]+0.041*[#   3]+0.041*[#   4]+0.041*[#   7]
          +0.041*[#   8]+0.010*[#   2]+0.010*[#   6]
    |psi|^2 = 0.309

 k =   0.2857142857  0.5773502692  0.0000000000
==== e(   1) =    -9.79223 eV ==== 
     psi = 0.313*[#   1]+0.313*[#   5]+0.090*[#   3]+0.090*[#   4]+0.090*[#   7]
          +0.090*[#   8]+0.002*[#   2]+0.002*[#   6]
    |psi|^2 = 0.991
==== e(   2) =    -9.26468 eV ==== 
     psi = 0.288*[#   1]+0.288*[#   5]+0.103*[#   3]+0.103*[#   4]+0.103*[#   7]
          +0.103*[#   8]+0.001*[#   2]+0.001*[#   6]
    |psi|^2 = 0.990
==== e(   3) =    -6.07007 eV ==== 
     psi = 0.244*[#   3]+0.244*[#   4]+0.244*[#   7]+0.244*[#   8]+0.003*[#   1]
          +0.003*[#   5]
    |psi|^2 = 0.981
==== e(   4) =    -2.02455 eV ==== 
     psi = 0.447*[#   2]+0.447*[#   6]+0.026*[#   1]+0.026*[#   5]+0.010*[#   3]
          +0.010*[#   4]+0.010*[#   7]+0.010*[#   8]
    |psi|^2 = 0.987
==== e(   5) =    -1.53803 eV ==== 
     psi = 0.441*[#   6]+0.441*[#   2]+0.027*[#   1]+0.027*[#   5]+0.011*[#   3]
          +0.011*[#   4]+0.011*[#   7]+0.011*[#   8]
    |psi|^2 = 0.981
==== e(   6) =     2.28806 eV ==== 
     psi = 0.112*[#   3]+0.112*[#   4]+0.112*[#   7]+0.112*[#   8]+0.001*[#   2]
          +0.001*[#   6]
    |psi|^2 = 0.450
==== e(   7) =     3.31560 eV ==== 
     psi = 0.088*[#   1]+0.088*[#   5]+0.066*[#   3]+0.066*[#   4]+0.065*[#   7]
          +0.065*[#   8]+0.018*[#   2]+0.018*[#   6]
    |psi|^2 = 0.473
==== e(   8) =     4.52646 eV ==== 
     psi = 0.037*[#   1]+0.037*[#   5]+0.020*[#   7]+0.020*[#   8]+0.020*[#   3]
          +0.020*[#   4]+0.005*[#   2]+0.005*[#   6]
    |psi|^2 = 0.164

 k =   0.3000000000  0.5196152423  0.0000000000
==== e(   1) =    -9.97219 eV ==== 
     psi = 0.315*[#   1]+0.315*[#   5]+0.089*[#   3]+0.089*[#   4]+0.089*[#   7]
          +0.089*[#   8]+0.002*[#   2]+0.002*[#   6]
    |psi|^2 = 0.991
==== e(   2) =    -9.07777 eV ==== 
     psi = 0.286*[#   1]+0.286*[#   5]+0.104*[#   3]+0.104*[#   4]+0.104*[#   7]
          +0.104*[#   8]
    |psi|^2 = 0.990
==== e(   3) =    -6.02842 eV ==== 
     psi = 0.244*[#   3]+0.244*[#   4]+0.244*[#   7]+0.244*[#   8]+0.004*[#   1]
          +0.004*[#   5]
    |psi|^2 = 0.981
==== e(   4) =    -2.18927 eV ==== 
     psi = 0.447*[#   2]+0.447*[#   6]+0.025*[#   1]+0.025*[#   5]+0.011*[#   3]
          +0.011*[#   4]+0.011*[#   7]+0.011*[#   8]
    |psi|^2 = 0.987
==== e(   5) =    -1.37159 eV ==== 
     psi = 0.441*[#   6]+0.441*[#   2]+0.028*[#   1]+0.028*[#   5]+0.011*[#   3]
          +0.011*[#   4]+0.011*[#   7]+0.011*[#   8]
    |psi|^2 = 0.981
==== e(   6) =     2.33248 eV ==== 
     psi = 0.112*[#   3]+0.112*[#   4]+0.112*[#   7]+0.112*[#   8]
    |psi|^2 = 0.449
==== e(   7) =     3.47128 eV ==== 
     psi = 0.045*[#   3]+0.045*[#   4]+0.045*[#   7]+0.045*[#   8]+0.045*[#   1]
          +0.045*[#   5]+0.011*[#   2]+0.011*[#   6]
    |psi|^2 = 0.293
==== e(   8) =     3.82273 eV ==== 
     psi = 0.146*[#   1]+0.145*[#   5]+0.097*[#   3]+0.097*[#   4]+0.097*[#   7]
          +0.097*[#   8]+0.027*[#   2]+0.027*[#   6]
    |psi|^2 = 0.734

 k =   0.3000000000  0.5361109642  0.0000000000
==== e(   1) =    -9.87189 eV ==== 
     psi = 0.313*[#   1]+0.312*[#   5]+0.090*[#   3]+0.090*[#   4]+0.090*[#   7]
          +0.090*[#   8]+0.002*[#   2]+0.002*[#   6]
    |psi|^2 = 0.991
==== e(   2) =    -9.17834 eV ==== 
     psi = 0.289*[#   1]+0.289*[#   5]+0.103*[#   3]+0.103*[#   4]+0.103*[#   7]
          +0.103*[#   8]+0.001*[#   2]+0.001*[#   6]
    |psi|^2 = 0.990
==== e(   3) =    -6.06403 eV ==== 
     psi = 0.244*[#   3]+0.244*[#   4]+0.244*[#   7]+0.244*[#   8]+0.002*[#   1]
          +0.002*[#   5]
    |psi|^2 = 0.981
==== e(   4) =    -2.09669 eV ==== 
     psi = 0.447*[#   2]+0.447*[#   6]+0.026*[#   1]+0.026*[#   5]+0.011*[#   3]
          +0.011*[#   4]+0.011*[#   7]+0.011*[#   8]
    |psi|^2 = 0.987
==== e(   5) =    -1.46200 eV ==== 
     psi = 0.442*[#   6]+0.442*[#   2]+0.027*[#   1]+0.027*[#   5]+0.011*[#   3]
          +0.011*[#   4]+0.011*[#   7]+0.011*[#   8]
    |psi|^2 = 0.982
==== e(   6) =     2.29566 eV ==== 
     psi = 0.112*[#   3]+0.112*[#   4]+0.112*[#   7]+0.112*[#   8]
    |psi|^2 = 0.450
==== e(   7) =     3.54822 eV ==== 
     psi = 0.053*[#   1]+0.053*[#   5]+0.046*[#   3]+0.046*[#   4]+0.046*[#   7]
          +0.046*[#   8]+0.012*[#   2]+0.012*[#   6]
    |psi|^2 = 0.314
==== e(   8) =     3.99334 eV ==== 
     psi = 0.125*[#   1]+0.125*[#   5]+0.085*[#   3]+0.085*[#   4]+0.085*[#   7]
          +0.085*[#   8]+0.023*[#   2]+0.023*[#   6]
    |psi|^2 = 0.636

 k =   0.3000000000  0.5526066862  0.0000000000
==== e(   1) =    -9.78325 eV ==== 
     psi = 0.311*[#   1]+0.311*[#   5]+0.091*[#   3]+0.091*[#   4]+0.091*[#   7]
          +0.091*[#   8]+0.002*[#   2]+0.002*[#   6]
    |psi|^2 = 0.991
==== e(   2) =    -9.26713 eV ==== 
     psi = 0.291*[#   1]+0.291*[#   5]+0.101*[#   3]+0.101*[#   4]+0.101*[#   7]
          +0.101*[#   8]+0.001*[#   2]+0.001*[#   6]
    |psi|^2 = 0.990
==== e(   3) =    -6.08786 eV ==== 
     psi = 0.244*[#   3]+0.244*[#   4]+0.244*[#   7]+0.244*[#   8]+0.002*[#   1]
          +0.002*[#   5]
    |psi|^2 = 0.981
==== e(   4) =    -2.01524 eV ==== 
     psi = 0.447*[#   2]+0.446*[#   6]+0.026*[#   1]+0.026*[#   5]+0.010*[#   3]
          +0.010*[#   4]+0.010*[#   7]+0.010*[#   8]
    |psi|^2 = 0.987
==== e(   5) =    -1.54194 eV ==== 
     psi = 0.443*[#   6]+0.442*[#   2]+0.027*[#   1]+0.027*[#   5]+0.011*[#   3]
          +0.011*[#   4]+0.011*[#   7]+0.011*[#   8]
    |psi|^2 = 0.982
==== e(   6) =     2.27089 eV ==== 
     psi = 0.112*[#   3]+0.112*[#   4]+0.112*[#   7]+0.112*[#   8]
    |psi|^2 = 0.451
==== e(   7) =     3.57034 eV ==== 
     psi = 0.064*[#   1]+0.064*[#   5]+0.051*[#   3]+0.051*[#   4]+0.051*[#   7]
          +0.051*[#   8]+0.013*[#   2]+0.013*[#   6]
    |psi|^2 = 0.357
==== e(   8) =     4.20603 eV ==== 
     psi = 0.096*[#   1]+0.096*[#   5]+0.065*[#   3]+0.065*[#   4]+0.065*[#   7]
          +0.065*[#   8]+0.017*[#   2]+0.017*[#   6]
    |psi|^2 = 0.485

 k =   0.3000000000  0.5691024082  0.0000000000
==== e(   1) =    -9.72426 eV ==== 
     psi = 0.310*[#   1]+0.310*[#   5]+0.092*[#   3]+0.092*[#   4]+0.092*[#   7]
          +0.092*[#   8]+0.002*[#   2]+0.002*[#   6]
    |psi|^2 = 0.991
==== e(   2) =    -9.32619 eV ==== 
     psi = 0.292*[#   1]+0.293*[#   5]+0.101*[#   3]+0.101*[#   4]+0.101*[#   7]
          +0.101*[#   8]+0.001*[#   2]+0.001*[#   6]
    |psi|^2 = 0.990
==== e(   3) =    -6.09981 eV ==== 
     psi = 0.245*[#   3]+0.245*[#   4]+0.245*[#   7]+0.245*[#   8]+0.001*[#   1]
          +0.001*[#   5]
    |psi|^2 = 0.981
==== e(   4) =    -1.96131 eV ==== 
     psi = 0.447*[#   2]+0.446*[#   6]+0.026*[#   1]+0.026*[#   5]+0.010*[#   3]
          +0.010*[#   4]+0.010*[#   7]+0.010*[#   8]
    |psi|^2 = 0.986
==== e(   5) =    -1.59511 eV ==== 
     psi = 0.443*[#   6]+0.442*[#   2]+0.027*[#   1]+0.027*[#   5]+0.011*[#   3]
          +0.011*[#   4]+0.011*[#   7]+0.011*[#   8]
    |psi|^2 = 0.983
==== e(   6) =     2.25843 eV ==== 
     psi = 0.113*[#   3]+0.113*[#   4]+0.113*[#   7]+0.113*[#   8]
    |psi|^2 = 0.451
==== e(   7) =     3.57617 eV ==== 
     psi = 0.069*[#   1]+0.069*[#   5]+0.053*[#   3]+0.053*[#   4]+0.053*[#   7]
          +0.053*[#   8]+0.014*[#   2]+0.014*[#   6]
    |psi|^2 = 0.376
==== e(   8) =     4.39304 eV ==== 
     psi = 0.064*[#   5]+0.064*[#   1]+0.041*[#   3]+0.041*[#   4]+0.040*[#   7]
          +0.040*[#   8]+0.010*[#   2]+0.010*[#   6]
    |psi|^2 = 0.310

 k =   0.3142857143  0.5443588252  0.0000000000
==== e(   1) =    -9.77039 eV ==== 
     psi = 0.310*[#   1]+0.310*[#   5]+0.092*[#   3]+0.092*[#   4]+0.092*[#   7]
          +0.092*[#   8]+0.002*[#   2]+0.002*[#   6]
    |psi|^2 = 0.991
==== e(   2) =    -9.27793 eV ==== 
     psi = 0.293*[#   1]+0.293*[#   5]+0.101*[#   3]+0.101*[#   4]+0.101*[#   7]
          +0.101*[#   8]+0.001*[#   2]+0.001*[#   6]
    |psi|^2 = 0.991
==== e(   3) =    -6.09569 eV ==== 
     psi = 0.245*[#   3]+0.245*[#   4]+0.245*[#   7]+0.245*[#   8]+0.001*[#   1]
          +0.001*[#   5]
    |psi|^2 = 0.981
==== e(   4) =    -2.00309 eV ==== 
     psi = 0.447*[#   2]+0.446*[#   6]+0.026*[#   1]+0.026*[#   5]+0.010*[#   3]
          +0.010*[#   4]+0.010*[#   7]+0.010*[#   8]
    |psi|^2 = 0.986
==== e(   5) =    -1.55223 eV ==== 
     psi = 0.443*[#   6]+0.443*[#   2]+0.027*[#   1]+0.027*[#   5]+0.011*[#   3]
          +0.011*[#   4]+0.011*[#   7]+0.011*[#   8]
    |psi|^2 = 0.983
==== e(   6) =     2.26319 eV ==== 
     psi = 0.113*[#   3]+0.113*[#   4]+0.113*[#   7]+0.113*[#   8]
    |psi|^2 = 0.451
==== e(   7) =     3.72105 eV ==== 
     psi = 0.032*[#   1]+0.032*[#   5]+0.029*[#   3]+0.029*[#   4]+0.029*[#   7]
          +0.029*[#   8]+0.007*[#   2]+0.007*[#   6]
    |psi|^2 = 0.195
==== e(   8) =     4.06863 eV ==== 
     psi = 0.131*[#   1]+0.131*[#   5]+0.090*[#   3]+0.090*[#   4]+0.090*[#   7]
          +0.090*[#   8]+0.024*[#   2]+0.024*[#   6]
    |psi|^2 = 0.668

 k =   0.3142857143  0.5608545472  0.0000000000
==== e(   1) =    -9.68037 eV ==== 
     psi = 0.307*[#   1]+0.307*[#   5]+0.093*[#   3]+0.093*[#   4]+0.093*[#   7]
          +0.093*[#   8]+0.002*[#   2]+0.002*[#   6]
    |psi|^2 = 0.991
==== e(   2) =    -9.36676 eV ==== 
     psi = 0.296*[#   1]+0.296*[#   5]+0.099*[#   3]+0.099*[#   4]+0.099*[#   7]
          +0.099*[#   8]+0.001*[#   2]+0.001*[#   6]
    |psi|^2 = 0.991
==== e(   3) =    -6.11478 eV ==== 
     psi = 0.245*[#   3]+0.245*[#   4]+0.245*[#   7]+0.245*[#   8]
    |psi|^2 = 0.981
==== e(   4) =    -1.92040 eV ==== 
     psi = 0.446*[#   2]+0.446*[#   6]+0.026*[#   1]+0.026*[#   5]+0.010*[#   3]
          +0.010*[#   4]+0.010*[#   7]+0.010*[#   8]
    |psi|^2 = 0.986
==== e(   5) =    -1.63285 eV ==== 
     psi = 0.444*[#   6]+0.443*[#   2]+0.027*[#   1]+0.027*[#   5]+0.011*[#   3]
          +0.011*[#   4]+0.011*[#   7]+0.011*[#   8]
    |psi|^2 = 0.983
==== e(   6) =     2.24354 eV ==== 
     psi = 0.113*[#   3]+0.113*[#   4]+0.113*[#   7]+0.113*[#   8]
    |psi|^2 = 0.452
==== e(   7) =     3.79449 eV ==== 
     psi = 0.035*[#   1]+0.035*[#   5]+0.029*[#   3]+0.029*[#   4]+0.029*[#   7]
          +0.029*[#   8]+0.007*[#   2]+0.007*[#   6]
    |psi|^2 = 0.202
==== e(   8) =     4.22562 eV ==== 
     psi = 0.106*[#   1]+0.106*[#   5]+0.072*[#   3]+0.072*[#   4]+0.072*[#   7]
          +0.072*[#   8]+0.018*[#   2]+0.018*[#   6]
    |psi|^2 = 0.538

 k =   0.3142857143  0.5773502692  0.0000000000
==== e(   1) =    -9.63530 eV ==== 
     psi = 0.306*[#   1]+0.306*[#   5]+0.094*[#   3]+0.094*[#   4]+0.094*[#   7]
          +0.094*[#   8]+0.002*[#   2]+0.002*[#   6]
    |psi|^2 = 0.991
==== e(   2) =    -9.41144 eV ==== 
     psi = 0.297*[#   5]+0.297*[#   1]+0.099*[#   3]+0.099*[#   4]+0.099*[#   7]
          +0.099*[#   8]+0.001*[#   2]+0.001*[#   6]
    |psi|^2 = 0.991
==== e(   3) =    -6.12116 eV ==== 
     psi = 0.245*[#   3]+0.245*[#   4]+0.245*[#   7]+0.245*[#   8]
    |psi|^2 = 0.981
==== e(   4) =    -1.87917 eV ==== 
     psi = 0.446*[#   2]+0.446*[#   6]+0.026*[#   1]+0.026*[#   5]+0.010*[#   3]
          +0.010*[#   4]+0.010*[#   7]+0.010*[#   8]
    |psi|^2 = 0.986
==== e(   5) =    -1.67339 eV ==== 
     psi = 0.444*[#   6]+0.443*[#   2]+0.027*[#   1]+0.027*[#   5]+0.011*[#   3]
          +0.011*[#   4]+0.011*[#   7]+0.011*[#   8]
    |psi|^2 = 0.984
==== e(   6) =     2.23695 eV ==== 
     psi = 0.113*[#   3]+0.113*[#   4]+0.113*[#   7]+0.113*[#   8]
    |psi|^2 = 0.452
==== e(   7) =     3.81042 eV ==== 
     psi = 0.040*[#   1]+0.040*[#   5]+0.031*[#   3]+0.031*[#   4]+0.031*[#   7]
          +0.031*[#   8]+0.008*[#   2]+0.008*[#   6]
    |psi|^2 = 0.222
==== e(   8) =     4.35533 eV ==== 
     psi = 0.075*[#   1]+0.074*[#   5]+0.048*[#   7]+0.048*[#   8]+0.048*[#   3]
          +0.048*[#   4]+0.012*[#   2]+0.012*[#   6]
    |psi|^2 = 0.364

 k =   0.3285714286  0.5691024082  0.0000000000
==== e(   1) =    -9.58165 eV ==== 
     psi = 0.304*[#   1]+0.304*[#   5]+0.095*[#   3]+0.095*[#   4]+0.095*[#   7]
          +0.095*[#   8]+0.002*[#   2]+0.002*[#   6]
    |psi|^2 = 0.991
==== e(   2) =    -9.46382 eV ==== 
     psi = 0.300*[#   5]+0.299*[#   1]+0.097*[#   3]+0.097*[#   4]+0.097*[#   7]
          +0.097*[#   8]+0.002*[#   2]+0.002*[#   6]
    |psi|^2 = 0.991
==== e(   3) =    -6.12830 eV ==== 
     psi = 0.245*[#   3]+0.245*[#   4]+0.245*[#   7]+0.245*[#   8]
    |psi|^2 = 0.981
==== e(   4) =    -1.82966 eV ==== 
     psi = 0.446*[#   2]+0.445*[#   6]+0.026*[#   1]+0.026*[#   5]+0.010*[#   3]
          +0.010*[#   4]+0.010*[#   7]+0.010*[#   8]
    |psi|^2 = 0.985
==== e(   5) =    -1.72160 eV ==== 
     psi = 0.445*[#   6]+0.444*[#   2]+0.026*[#   1]+0.027*[#   5]+0.011*[#   3]
          +0.011*[#   4]+0.011*[#   7]+0.011*[#   8]
    |psi|^2 = 0.984
==== e(   6) =     2.22976 eV ==== 
     psi = 0.113*[#   3]+0.113*[#   4]+0.113*[#   7]+0.113*[#   8]
    |psi|^2 = 0.453
==== e(   7) =     3.93447 eV ==== 
     psi = 0.007*[#   3]+0.007*[#   4]+0.007*[#   7]+0.007*[#   8]+0.007*[#   1]
          +0.007*[#   5]+0.001*[#   2]+0.001*[#   6]
    |psi|^2 = 0.047
==== e(   8) =     4.29963 eV ==== 
     psi = 0.109*[#   1]+0.108*[#   5]+0.074*[#   7]+0.074*[#   8]+0.073*[#   3]
          +0.073*[#   4]+0.018*[#   2]+0.018*[#   6]
    |psi|^2 = 0.547

Lowdin Charges: 

     Atom #   1: total charge =   3.9490, s =  1.2271, p =  2.7219, 
                 spin up      =   1.9745, s =  0.6136, 
                 spin up      =   1.9745, p =  1.3609, pz=  0.4519, px=  0.4545, py=  0.4545, 
                 spin down    =   1.9745, s =  0.6135, 
                 spin down    =   1.9745, p =  1.3610, pz=  0.4519, px=  0.4545, py=  0.4545, 
                 polarization =   0.0000, s =  0.0000, p = -0.0000, 
     Atom #   2: total charge =   3.9487, s =  1.2271, p =  2.7217, 
                 spin up      =   1.9744, s =  0.6136, 
                 spin up      =   1.9744, p =  1.3608, pz=  0.4518, px=  0.4545, py=  0.4545, 
                 spin down    =   1.9744, s =  0.6135, 
                 spin down    =   1.9744, p =  1.3608, pz=  0.4519, px=  0.4545, py=  0.4545, 
                 polarization =   0.0000, s =  0.0000, p = -0.0000, 
     Spilling Parameter:   0.0128
 
     PROJWFC      :      9.49s CPU     20.49s WALL

 
   This run was terminated on:  23:50:45  18Mar2021            

=------------------------------------------------------------------------------=
   JOB DONE.
=------------------------------------------------------------------------------=
