
     Program PWSCF v.6.6 starts on 18Mar2021 at 22:55:21 

     This program is part of the open-source Quantum ESPRESSO suite
     for quantum simulation of materials; please cite
         "P. Giannozzi et al., J. Phys.:Condens. Matter 21 395502 (2009);
         "P. Giannozzi et al., J. Phys.:Condens. Matter 29 465901 (2017);
          URL http://www.quantum-espresso.org", 
     in publications or presentations arising from this work. More details at
     http://www.quantum-espresso.org/quote

     Parallel version (MPI), running on     1 processors

     MPI processes distributed on     1 nodes
     Fft bands division:     nmany     =       1
     Waiting for input...
     Reading input from standard input
Warning: card &CELL ignored
Warning: card   CELL_DYNAMICS='BFGS', ignored
Warning: card   CELL_DOFREE='ALL', ignored
Warning: card / ignored

     Current dimensions of program PWSCF are:
     Max number of different atomic species (ntypx) = 10
     Max number of k-points (npk) =  40000
     Max angular momentum in pseudopotentials (lmaxx) =  3

     Subspace diagonalization in iterative solution of the eigenvalue problem:
     a serial algorithm will be used

 
     G-vector sticks info
     --------------------
     sticks:   dense  smooth     PW     G-vecs:    dense   smooth      PW
     Sum         889     439    139                66219    23461    3853
 


     bravais-lattice index     =            4
     lattice parameter (alat)  =       7.3321  a.u.
     unit-cell volume          =    1055.7764 (a.u.)^3
     number of atoms/cell      =            2
     number of atomic types    =            1
     number of electrons       =         8.00
     number of Kohn-Sham states=            8
     kinetic-energy cutoff     =      30.0000  Ry
     charge density cutoff     =     240.0000  Ry
     convergence threshold     =      1.0E-06
     mixing beta               =       0.7000
     number of iterations used =            8  plain     mixing
     Exchange-correlation= PBE
                           (   1   4   3   4   0   0   0)

     celldm(1)=   7.332137  celldm(2)=   0.000000  celldm(3)=   3.092784
     celldm(4)=   0.000000  celldm(5)=   0.000000  celldm(6)=   0.000000

     crystal axes: (cart. coord. in units of alat)
               a(1) = (   1.000000   0.000000   0.000000 )  
               a(2) = (  -0.500000   0.866025   0.000000 )  
               a(3) = (   0.000000   0.000000   3.092784 )  

     reciprocal axes: (cart. coord. in units 2 pi/alat)
               b(1) = (  1.000000  0.577350  0.000000 )  
               b(2) = (  0.000000  1.154701  0.000000 )  
               b(3) = (  0.000000  0.000000  0.323333 )  


     PseudoPot. # 1 for Si read from file:
     /home/jesus/Documentos/Nanociencia_DFT/pseudopotenciales/Si.pbe-n-rrkjus_psl.1.0.0.UPF
     MD5 check sum: fa25574f73a70a4139f2adfbefec430c
     Pseudo is Ultrasoft + core correction, Zval =  4.0
     Generated using "atomic" code by A. Dal Corso v.6.3
     Using radial grid of 1141 points,  6 beta functions with: 
                l(1) =   0
                l(2) =   0
                l(3) =   1
                l(4) =   1
                l(5) =   2
                l(6) =   2
     Q(r) pseudized with 0 coefficients 


     atomic species   valence    mass     pseudopotential
        Si             4.00    28.08550     Si( 1.00)

      6 Sym. Ops. (no inversion) found



   Cartesian axes

     site n.     atom                  positions (alat units)
         1           Si  tau(   1) = (  -0.0000000   0.5773503   1.5209498  )
         2           Si  tau(   2) = (   0.5000000   0.2886751   1.6491100  )

     number of k points=   154  Methfessel-Paxton smearing, width (Ry)=  0.0100

     Number of k-points >= 100: set verbosity='high' to print them.

     Dense  grid:    66219 G-vectors     FFT dimensions: (  40,  40, 120)

     Smooth grid:    23461 G-vectors     FFT dimensions: (  25,  25,  80)

     Estimated max dynamical RAM per process >     288.64 MB

     Initial potential from superposition of free atoms

     starting charge    7.99888, renormalised to    8.00000

     negative rho (up, down):  2.390E-06 0.000E+00
     Starting wfcs are    8 randomized atomic wfcs

     total cpu time spent up to now is        3.5 secs

     Self-consistent Calculation

     iteration #  1     ecut=    30.00 Ry     beta= 0.70
     Davidson diagonalization with overlap
     ethr =  1.00E-02,  avg # of iterations =  4.4

     Threshold (ethr) on eigenvalues was too large:
     Diagonalizing with lowered threshold

     Davidson diagonalization with overlap
     ethr =  7.23E-04,  avg # of iterations =  1.8

     negative rho (up, down):  9.456E-07 0.000E+00

     total cpu time spent up to now is       19.1 secs

     total energy              =     -22.73899941 Ry
     estimated scf accuracy    <       0.06338460 Ry

     iteration #  2     ecut=    30.00 Ry     beta= 0.70
     Davidson diagonalization with overlap
     ethr =  7.92E-04,  avg # of iterations =  2.9

     negative rho (up, down):  1.408E-06 0.000E+00

     total cpu time spent up to now is       26.2 secs

     total energy              =     -22.74540295 Ry
     estimated scf accuracy    <       0.00185012 Ry

     iteration #  3     ecut=    30.00 Ry     beta= 0.70
     Davidson diagonalization with overlap
     c_bands:  1 eigenvalues not converged
     ethr =  2.31E-05,  avg # of iterations =  8.4

     negative rho (up, down):  1.886E-06 0.000E+00

     total cpu time spent up to now is       36.4 secs

     total energy              =     -22.74558115 Ry
     estimated scf accuracy    <       0.00010967 Ry

     iteration #  4     ecut=    30.00 Ry     beta= 0.70
     Davidson diagonalization with overlap
     c_bands:  1 eigenvalues not converged
     ethr =  1.37E-06,  avg # of iterations =  5.4

     negative rho (up, down):  1.872E-06 0.000E+00

     total cpu time spent up to now is       45.0 secs

     End of self-consistent calculation

     Number of k-points >= 100: set verbosity='high' to print the bands.

     the Fermi energy is    -1.7781 ev

!    total energy              =     -22.74559390 Ry
     estimated scf accuracy    <       0.00000087 Ry
     smearing contrib. (-TS)   =       0.00001936 Ry
     internal energy E=F+TS    =     -22.74561326 Ry

     The total energy is F=E-TS. E is the sum of the following terms:
     one-electron contribution =     -37.55529628 Ry
     hartree contribution      =      20.05179293 Ry
     xc contribution           =     -12.12534460 Ry
     ewald contribution        =       6.88323470 Ry

     convergence has been achieved in   4 iterations

     Writing output data file /home/jesus/Documentos/Nanociencia_DFT/test.save/
 
     init_run     :      2.62s CPU      2.80s WALL (       1 calls)
     electrons    :     40.56s CPU     41.50s WALL (       1 calls)

     Called by init_run:
     wfcinit      :      2.00s CPU      2.02s WALL (       1 calls)
     potinit      :      0.12s CPU      0.14s WALL (       1 calls)
     hinit0       :      0.27s CPU      0.30s WALL (       1 calls)

     Called by electrons:
     c_bands      :     33.99s CPU     34.16s WALL (       5 calls)
     sum_band     :      5.60s CPU      6.01s WALL (       5 calls)
     v_of_rho     :      0.43s CPU      0.45s WALL (       5 calls)
     newd         :      0.73s CPU      1.16s WALL (       5 calls)
     mix_rho      :      0.03s CPU      0.03s WALL (       5 calls)

     Called by c_bands:
     init_us_2    :      1.47s CPU      1.49s WALL (    1694 calls)
     cegterg      :     27.06s CPU     27.20s WALL (     770 calls)

     Called by *egterg:
     cdiaghg      :      0.53s CPU      0.54s WALL (    4146 calls)
     h_psi        :     24.36s CPU     24.49s WALL (    4454 calls)
     s_psi        :      0.99s CPU      0.99s WALL (    4454 calls)
     g_psi        :      0.13s CPU      0.13s WALL (    3530 calls)

     Called by h_psi:
     h_psi:calbec :      1.26s CPU      1.27s WALL (    4454 calls)
     vloc_psi     :     21.80s CPU     21.91s WALL (    4454 calls)
     add_vuspsi   :      1.13s CPU      1.14s WALL (    4454 calls)

     General routines
     calbec       :      1.56s CPU      1.57s WALL (    5224 calls)
     fft          :      0.15s CPU      0.17s WALL (      64 calls)
     ffts         :      0.01s CPU      0.01s WALL (      10 calls)
     fftw         :     22.24s CPU     22.36s WALL (   45404 calls)
     interpolate  :      0.02s CPU      0.02s WALL (       5 calls)
 
     Parallel routines
 
     PWSCF        :     43.85s CPU     45.08s WALL

 
   This run was terminated on:  22:56: 6  18Mar2021            

=------------------------------------------------------------------------------=
   JOB DONE.
=------------------------------------------------------------------------------=
