
     Program PWSCF v.6.6 starts on 15Mar2021 at 19:26:10 

     This program is part of the open-source Quantum ESPRESSO suite
     for quantum simulation of materials; please cite
         "P. Giannozzi et al., J. Phys.:Condens. Matter 21 395502 (2009);
         "P. Giannozzi et al., J. Phys.:Condens. Matter 29 465901 (2017);
          URL http://www.quantum-espresso.org", 
     in publications or presentations arising from this work. More details at
     http://www.quantum-espresso.org/quote

     Parallel version (MPI), running on     1 processors

     MPI processes distributed on     1 nodes
     Fft bands division:     nmany     =       1
     Waiting for input...
     Reading input from standard input
Warning: card &CELL ignored
Warning: card   CELL_DYNAMICS='BFGS', ignored
Warning: card   CELL_DOFREE='ALL', ignored
Warning: card / ignored

     Current dimensions of program PWSCF are:
     Max number of different atomic species (ntypx) = 10
     Max number of k-points (npk) =  40000
     Max angular momentum in pseudopotentials (lmaxx) =  3
     Message from routine set_cutoff:
     ecutrho < 4*ecutwfc, are you sure?

     Subspace diagonalization in iterative solution of the eigenvalue problem:
     a serial algorithm will be used

 
     G-vector sticks info
     --------------------
     sticks:   dense  smooth     PW     G-vecs:    dense   smooth      PW
     Sum         313     313    139                 3839     3839    1067
 


     bravais-lattice index     =            2
     lattice parameter (alat)  =      10.2045  a.u.
     unit-cell volume          =     265.6549 (a.u.)^3
     number of atoms/cell      =            2
     number of atomic types    =            1
     number of electrons       =         8.00
     number of Kohn-Sham states=            8
     kinetic-energy cutoff     =      30.0000  Ry
     charge density cutoff     =      90.0000  Ry
     convergence threshold     =      1.0E-06
     mixing beta               =       0.7000
     number of iterations used =            8  plain     mixing
     Exchange-correlation= PBE
                           (   1   4   3   4   0   0   0)

     celldm(1)=  10.204521  celldm(2)=   0.000000  celldm(3)=   0.000000
     celldm(4)=   0.000000  celldm(5)=   0.000000  celldm(6)=   0.000000

     crystal axes: (cart. coord. in units of alat)
               a(1) = (  -0.500000   0.000000   0.500000 )  
               a(2) = (   0.000000   0.500000   0.500000 )  
               a(3) = (  -0.500000   0.500000   0.000000 )  

     reciprocal axes: (cart. coord. in units 2 pi/alat)
               b(1) = ( -1.000000 -1.000000  1.000000 )  
               b(2) = (  1.000000  1.000000  1.000000 )  
               b(3) = ( -1.000000  1.000000 -1.000000 )  


     PseudoPot. # 1 for Si read from file:
     /home/jesus/Documentos/Nanociencia_DFT/pseudopotenciales/Si.pbe-n-rrkjus_psl.1.0.0.UPF
     MD5 check sum: fa25574f73a70a4139f2adfbefec430c
     Pseudo is Ultrasoft + core correction, Zval =  4.0
     Generated using "atomic" code by A. Dal Corso v.6.3
     Using radial grid of 1141 points,  6 beta functions with: 
                l(1) =   0
                l(2) =   0
                l(3) =   1
                l(4) =   1
                l(5) =   2
                l(6) =   2
     Q(r) pseudized with 0 coefficients 


     atomic species   valence    mass     pseudopotential
        Si             4.00    28.08550     Si( 1.00)

     48 Sym. Ops., with inversion, found (24 have fractional translation)



   Cartesian axes

     site n.     atom                  positions (alat units)
         1           Si  tau(   1) = (   0.0000000   0.0000000   0.0000000  )
         2           Si  tau(   2) = (  -0.2500000   0.2500000   0.2500000  )

     number of k points=    20  Methfessel-Paxton smearing, width (Ry)=  0.0100
                       cart. coord. in units 2pi/alat
        k(    1) = (   0.0000000   0.0000000   0.0000000), wk =   0.0058309
        k(    2) = (  -0.1428571   0.1428571  -0.1428571), wk =   0.0466472
        k(    3) = (  -0.2857143   0.2857143  -0.2857143), wk =   0.0466472
        k(    4) = (  -0.4285714   0.4285714  -0.4285714), wk =   0.0466472
        k(    5) = (   0.0000000   0.2857143   0.0000000), wk =   0.0349854
        k(    6) = (  -0.1428571   0.4285714  -0.1428571), wk =   0.1399417
        k(    7) = (  -0.2857143   0.5714286  -0.2857143), wk =   0.1399417
        k(    8) = (   0.5714286  -0.2857143   0.5714286), wk =   0.1399417
        k(    9) = (   0.4285714  -0.1428571   0.4285714), wk =   0.1399417
        k(   10) = (   0.2857143  -0.0000000   0.2857143), wk =   0.0699708
        k(   11) = (   0.0000000   0.5714286   0.0000000), wk =   0.0349854
        k(   12) = (  -0.1428571   0.7142857  -0.1428571), wk =   0.1399417
        k(   13) = (   0.7142857  -0.1428571   0.7142857), wk =   0.1399417
        k(   14) = (   0.5714286   0.0000000   0.5714286), wk =   0.0699708
        k(   15) = (   0.0000000   0.8571429   0.0000000), wk =   0.0349854
        k(   16) = (   0.8571429  -0.0000000   0.8571429), wk =   0.0699708
        k(   17) = (  -0.2857143   0.5714286   0.0000000), wk =   0.1399417
        k(   18) = (   0.5714286  -0.2857143   0.8571429), wk =   0.2798834
        k(   19) = (   0.7142857  -0.1428571   1.0000000), wk =   0.1399417
        k(   20) = (   0.5714286   0.0000000   0.8571429), wk =   0.1399417

     Dense  grid:     3839 G-vectors     FFT dimensions: (  24,  24,  24)

     Estimated max dynamical RAM per process >      16.62 MB

     Check: negative core charge=   -0.000012

     Initial potential from superposition of free atoms

     starting charge    7.99888, renormalised to    8.00000
     Starting wfcs are    8 randomized atomic wfcs

     total cpu time spent up to now is        0.9 secs

     Self-consistent Calculation

     iteration #  1     ecut=    30.00 Ry     beta= 0.70
     Davidson diagonalization with overlap
     ethr =  1.00E-02,  avg # of iterations =  4.2

     Threshold (ethr) on eigenvalues was too large:
     Diagonalizing with lowered threshold

     Davidson diagonalization with overlap
     ethr =  6.70E-04,  avg # of iterations =  1.4

     total cpu time spent up to now is        1.5 secs

     total energy              =     -22.83541918 Ry
     estimated scf accuracy    <       0.05748057 Ry

     iteration #  2     ecut=    30.00 Ry     beta= 0.70
     Davidson diagonalization with overlap
     ethr =  7.19E-04,  avg # of iterations =  1.1

     total cpu time spent up to now is        1.7 secs

     total energy              =     -22.83789722 Ry
     estimated scf accuracy    <       0.00221574 Ry

     iteration #  3     ecut=    30.00 Ry     beta= 0.70
     Davidson diagonalization with overlap
     ethr =  2.77E-05,  avg # of iterations =  5.0

     total cpu time spent up to now is        1.9 secs

     total energy              =     -22.83803152 Ry
     estimated scf accuracy    <       0.00005019 Ry

     iteration #  4     ecut=    30.00 Ry     beta= 0.70
     Davidson diagonalization with overlap
     ethr =  6.27E-07,  avg # of iterations =  3.5

     total cpu time spent up to now is        2.2 secs

     End of self-consistent calculation

          k = 0.0000 0.0000 0.0000 (   725 PWs)   bands (ev):

    -5.6938   6.3870   6.3870   6.3870   8.9556   8.9556   8.9556   9.9445

          k =-0.1429 0.1429-0.1429 (   739 PWs)   bands (ev):

    -5.4238   4.4443   6.0230   6.0230   8.8767   9.4862   9.4863  11.5634

          k =-0.2857 0.2857-0.2857 (   754 PWs)   bands (ev):

    -4.6449   1.7906   5.5002   5.5002   8.3495   9.9320   9.9320  13.9693

          k =-0.4286 0.4286-0.4286 (   739 PWs)   bands (ev):

    -3.5823  -0.2758   5.2087   5.2087   8.0258   9.7625   9.7625  14.2062

          k = 0.0000 0.2857 0.0000 (   737 PWs)   bands (ev):

    -5.3325   4.7708   5.3939   5.3939   8.2639  10.3894  10.3894  10.9319

          k =-0.1429 0.4286-0.1429 (   742 PWs)   bands (ev):

    -4.7161   2.6080   4.8136   4.8432   8.4646  10.3735  10.9432  11.1773

          k =-0.2857 0.5714-0.2857 (   741 PWs)   bands (ev):

    -3.6883   0.3839   4.1161   4.6534   8.5373  10.2591  10.9373  12.2107

          k = 0.5714-0.2857 0.5714 (   745 PWs)   bands (ev):

    -3.1145  -0.5008   3.6929   4.8568   8.6509  10.1527  10.5299  14.6342

          k = 0.4286-0.1429 0.4286 (   742 PWs)   bands (ev):

    -4.0641   1.0770   3.6906   5.3812   9.0791  10.2998  10.3438  13.1243

          k = 0.2857-0.0000 0.2857 (   749 PWs)   bands (ev):

    -4.9808   3.2378   4.3813   5.9855   9.5055   9.6969   9.9716  12.1059

          k = 0.0000 0.5714 0.0000 (   725 PWs)   bands (ev):

    -4.2655   2.2219   4.2100   4.2100   7.2975   8.9836  12.8460  12.8460

          k =-0.1429 0.7143-0.1429 (   730 PWs)   bands (ev):

    -3.3476   0.6940   3.2114   3.9468   7.5793   9.0807  13.0975  13.2250

          k = 0.7143-0.1429 0.7143 (   731 PWs)   bands (ev):

    -2.4076  -0.5127   2.2396   4.1195   7.8214  11.3506  12.7090  12.8454

          k = 0.5714 0.0000 0.5714 (   736 PWs)   bands (ev):

    -3.0721   0.2533   2.1609   4.6797   8.4466  11.8903  12.2238  13.1154

          k = 0.0000 0.8571 0.0000 (   745 PWs)   bands (ev):

    -2.5516  -0.3162   3.5688   3.5688   6.9283   7.4427  15.5386  15.5386

          k = 0.8571-0.0000 0.8571 (   736 PWs)   bands (ev):

    -1.5811  -1.2926   2.6497   3.6317   7.2307   8.5140  15.3145  15.8075

          k =-0.2857 0.5714 0.0000 (   735 PWs)   bands (ev):

    -3.9509   1.4665   3.2134   4.5676   8.9769  10.2334  10.5704  12.5929

          k = 0.5714-0.2857 0.8571 (   732 PWs)   bands (ev):

    -2.8873  -0.0974   2.6387   4.0163   9.4621   9.8932  11.9023  13.0470

          k = 0.7143-0.1429 1.0000 (   741 PWs)   bands (ev):

    -2.3404  -0.4009   2.7195   3.1359   8.5939   8.9583  12.6049  15.1667

          k = 0.5714 0.0000 0.8571 (   733 PWs)   bands (ev):

    -1.8907  -0.8066   2.0623   3.2307   9.1249  11.2389  12.1058  12.2296

     the Fermi energy is     6.8138 ev

!    total energy              =     -22.83804028 Ry
     estimated scf accuracy    <       0.00000015 Ry
     smearing contrib. (-TS)   =       0.00001028 Ry
     internal energy E=F+TS    =     -22.83805056 Ry

     The total energy is F=E-TS. E is the sum of the following terms:
     one-electron contribution =       5.29740895 Ry
     hartree contribution      =       1.08738251 Ry
     xc contribution           =     -12.33057080 Ry
     ewald contribution        =     -16.89227123 Ry

     convergence has been achieved in   4 iterations

     Writing output data file /home/jesus/Documentos/Nanociencia_DFT/test.save/
 
     init_run     :      0.25s CPU      0.33s WALL (       1 calls)
     electrons    :      1.23s CPU      1.27s WALL (       1 calls)

     Called by init_run:
     wfcinit      :      0.07s CPU      0.07s WALL (       1 calls)
     potinit      :      0.01s CPU      0.02s WALL (       1 calls)
     hinit0       :      0.16s CPU      0.22s WALL (       1 calls)

     Called by electrons:
     c_bands      :      0.99s CPU      1.02s WALL (       5 calls)
     sum_band     :      0.20s CPU      0.20s WALL (       5 calls)
     v_of_rho     :      0.03s CPU      0.04s WALL (       5 calls)
     newd         :      0.04s CPU      0.04s WALL (       5 calls)
     mix_rho      :      0.00s CPU      0.00s WALL (       5 calls)

     Called by c_bands:
     init_us_2    :      0.05s CPU      0.05s WALL (     220 calls)
     cegterg      :      0.77s CPU      0.79s WALL (     100 calls)

     Called by *egterg:
     cdiaghg      :      0.03s CPU      0.04s WALL (     382 calls)
     h_psi        :      0.70s CPU      0.72s WALL (     422 calls)
     s_psi        :      0.02s CPU      0.02s WALL (     422 calls)
     g_psi        :      0.00s CPU      0.00s WALL (     302 calls)

     Called by h_psi:
     h_psi:calbec :      0.03s CPU      0.03s WALL (     422 calls)
     vloc_psi     :      0.65s CPU      0.66s WALL (     422 calls)
     add_vuspsi   :      0.02s CPU      0.03s WALL (     422 calls)

     General routines
     calbec       :      0.03s CPU      0.04s WALL (     522 calls)
     fft          :      0.01s CPU      0.08s WALL (      56 calls)
     ffts         :      0.00s CPU      0.00s WALL (       5 calls)
     fftw         :      0.68s CPU      0.70s WALL (    5392 calls)
 
     Parallel routines
 
     PWSCF        :      2.11s CPU      2.23s WALL

 
   This run was terminated on:  19:26:12  15Mar2021            

=------------------------------------------------------------------------------=
   JOB DONE.
=------------------------------------------------------------------------------=
