
     Program PWSCF v.6.6 starts on 15Mar2021 at 19:26: 7 

     This program is part of the open-source Quantum ESPRESSO suite
     for quantum simulation of materials; please cite
         "P. Giannozzi et al., J. Phys.:Condens. Matter 21 395502 (2009);
         "P. Giannozzi et al., J. Phys.:Condens. Matter 29 465901 (2017);
          URL http://www.quantum-espresso.org", 
     in publications or presentations arising from this work. More details at
     http://www.quantum-espresso.org/quote

     Parallel version (MPI), running on     1 processors

     MPI processes distributed on     1 nodes
     Fft bands division:     nmany     =       1
     Waiting for input...
     Reading input from standard input
Warning: card &CELL ignored
Warning: card   CELL_DYNAMICS='BFGS', ignored
Warning: card   CELL_DOFREE='ALL', ignored
Warning: card / ignored

     Current dimensions of program PWSCF are:
     Max number of different atomic species (ntypx) = 10
     Max number of k-points (npk) =  40000
     Max angular momentum in pseudopotentials (lmaxx) =  3
     Message from routine set_cutoff:
     ecutrho < 4*ecutwfc, are you sure?

     Subspace diagonalization in iterative solution of the eigenvalue problem:
     a serial algorithm will be used

 
     G-vector sticks info
     --------------------
     sticks:   dense  smooth     PW     G-vecs:    dense   smooth      PW
     Sum         211     211    139                 2085     2085    1067
 


     bravais-lattice index     =            2
     lattice parameter (alat)  =      10.2045  a.u.
     unit-cell volume          =     265.6549 (a.u.)^3
     number of atoms/cell      =            2
     number of atomic types    =            1
     number of electrons       =         8.00
     number of Kohn-Sham states=            8
     kinetic-energy cutoff     =      30.0000  Ry
     charge density cutoff     =      60.0000  Ry
     convergence threshold     =      1.0E-06
     mixing beta               =       0.7000
     number of iterations used =            8  plain     mixing
     Exchange-correlation= PBE
                           (   1   4   3   4   0   0   0)

     celldm(1)=  10.204521  celldm(2)=   0.000000  celldm(3)=   0.000000
     celldm(4)=   0.000000  celldm(5)=   0.000000  celldm(6)=   0.000000

     crystal axes: (cart. coord. in units of alat)
               a(1) = (  -0.500000   0.000000   0.500000 )  
               a(2) = (   0.000000   0.500000   0.500000 )  
               a(3) = (  -0.500000   0.500000   0.000000 )  

     reciprocal axes: (cart. coord. in units 2 pi/alat)
               b(1) = ( -1.000000 -1.000000  1.000000 )  
               b(2) = (  1.000000  1.000000  1.000000 )  
               b(3) = ( -1.000000  1.000000 -1.000000 )  


     PseudoPot. # 1 for Si read from file:
     /home/jesus/Documentos/Nanociencia_DFT/pseudopotenciales/Si.pbe-n-rrkjus_psl.1.0.0.UPF
     MD5 check sum: fa25574f73a70a4139f2adfbefec430c
     Pseudo is Ultrasoft + core correction, Zval =  4.0
     Generated using "atomic" code by A. Dal Corso v.6.3
     Using radial grid of 1141 points,  6 beta functions with: 
                l(1) =   0
                l(2) =   0
                l(3) =   1
                l(4) =   1
                l(5) =   2
                l(6) =   2
     Q(r) pseudized with 0 coefficients 


     atomic species   valence    mass     pseudopotential
        Si             4.00    28.08550     Si( 1.00)

     48 Sym. Ops., with inversion, found (24 have fractional translation)



   Cartesian axes

     site n.     atom                  positions (alat units)
         1           Si  tau(   1) = (   0.0000000   0.0000000   0.0000000  )
         2           Si  tau(   2) = (  -0.2500000   0.2500000   0.2500000  )

     number of k points=    20  Methfessel-Paxton smearing, width (Ry)=  0.0100
                       cart. coord. in units 2pi/alat
        k(    1) = (   0.0000000   0.0000000   0.0000000), wk =   0.0058309
        k(    2) = (  -0.1428571   0.1428571  -0.1428571), wk =   0.0466472
        k(    3) = (  -0.2857143   0.2857143  -0.2857143), wk =   0.0466472
        k(    4) = (  -0.4285714   0.4285714  -0.4285714), wk =   0.0466472
        k(    5) = (   0.0000000   0.2857143   0.0000000), wk =   0.0349854
        k(    6) = (  -0.1428571   0.4285714  -0.1428571), wk =   0.1399417
        k(    7) = (  -0.2857143   0.5714286  -0.2857143), wk =   0.1399417
        k(    8) = (   0.5714286  -0.2857143   0.5714286), wk =   0.1399417
        k(    9) = (   0.4285714  -0.1428571   0.4285714), wk =   0.1399417
        k(   10) = (   0.2857143  -0.0000000   0.2857143), wk =   0.0699708
        k(   11) = (   0.0000000   0.5714286   0.0000000), wk =   0.0349854
        k(   12) = (  -0.1428571   0.7142857  -0.1428571), wk =   0.1399417
        k(   13) = (   0.7142857  -0.1428571   0.7142857), wk =   0.1399417
        k(   14) = (   0.5714286   0.0000000   0.5714286), wk =   0.0699708
        k(   15) = (   0.0000000   0.8571429   0.0000000), wk =   0.0349854
        k(   16) = (   0.8571429  -0.0000000   0.8571429), wk =   0.0699708
        k(   17) = (  -0.2857143   0.5714286   0.0000000), wk =   0.1399417
        k(   18) = (   0.5714286  -0.2857143   0.8571429), wk =   0.2798834
        k(   19) = (   0.7142857  -0.1428571   1.0000000), wk =   0.1399417
        k(   20) = (   0.5714286   0.0000000   0.8571429), wk =   0.1399417

     Dense  grid:     2085 G-vectors     FFT dimensions: (  20,  20,  20)

     Estimated max dynamical RAM per process >      10.31 MB

     Check: negative core charge=   -0.000077

     Initial potential from superposition of free atoms

     starting charge    7.99888, renormalised to    8.00000
     Starting wfcs are    8 randomized atomic wfcs

     total cpu time spent up to now is        1.7 secs

     Self-consistent Calculation

     iteration #  1     ecut=    30.00 Ry     beta= 0.70
     Davidson diagonalization with overlap
     ethr =  1.00E-02,  avg # of iterations =  4.2

     Threshold (ethr) on eigenvalues was too large:
     Diagonalizing with lowered threshold

     Davidson diagonalization with overlap
     ethr =  6.70E-04,  avg # of iterations =  1.4

     total cpu time spent up to now is        2.1 secs

     total energy              =     -22.83679026 Ry
     estimated scf accuracy    <       0.05750100 Ry

     iteration #  2     ecut=    30.00 Ry     beta= 0.70
     Davidson diagonalization with overlap
     ethr =  7.19E-04,  avg # of iterations =  1.1

     total cpu time spent up to now is        2.3 secs

     total energy              =     -22.83924685 Ry
     estimated scf accuracy    <       0.00223087 Ry

     iteration #  3     ecut=    30.00 Ry     beta= 0.70
     Davidson diagonalization with overlap
     ethr =  2.79E-05,  avg # of iterations =  5.0

     total cpu time spent up to now is        2.5 secs

     total energy              =     -22.83938093 Ry
     estimated scf accuracy    <       0.00004978 Ry

     iteration #  4     ecut=    30.00 Ry     beta= 0.70
     Davidson diagonalization with overlap
     ethr =  6.22E-07,  avg # of iterations =  3.5

     total cpu time spent up to now is        2.7 secs

     End of self-consistent calculation

          k = 0.0000 0.0000 0.0000 (   725 PWs)   bands (ev):

    -5.6889   6.3906   6.3906   6.3906   8.9597   8.9597   8.9597   9.9498

          k =-0.1429 0.1429-0.1429 (   739 PWs)   bands (ev):

    -5.4189   4.4485   6.0267   6.0267   8.8820   9.4903   9.4904  11.5686

          k =-0.2857 0.2857-0.2857 (   754 PWs)   bands (ev):

    -4.6402   1.7952   5.5039   5.5039   8.3556   9.9366   9.9366  13.9768

          k =-0.4286 0.4286-0.4286 (   739 PWs)   bands (ev):

    -3.5780  -0.2706   5.2123   5.2123   8.0320   9.7676   9.7676  14.2194

          k = 0.0000 0.2857 0.0000 (   737 PWs)   bands (ev):

    -5.3277   4.7747   5.3978   5.3978   8.2696  10.3933  10.3933  10.9378

          k =-0.1429 0.4286-0.1429 (   742 PWs)   bands (ev):

    -4.7114   2.6122   4.8178   4.8472   8.4708  10.3781  10.9502  11.1815

          k =-0.2857 0.5714-0.2857 (   741 PWs)   bands (ev):

    -3.6839   0.3887   4.1205   4.6573   8.5438  10.2645  10.9421  12.2172

          k = 0.5714-0.2857 0.5714 (   745 PWs)   bands (ev):

    -3.1104  -0.4957   3.6975   4.8606   8.6572  10.1588  10.5349  14.6420

          k = 0.4286-0.1429 0.4286 (   742 PWs)   bands (ev):

    -4.0596   1.0815   3.6953   5.3849   9.0846  10.3044  10.3501  13.1313

          k = 0.2857-0.0000 0.2857 (   749 PWs)   bands (ev):

    -4.9760   3.2418   4.3859   5.9891   9.5100   9.7011   9.9775  12.1124

          k = 0.0000 0.5714 0.0000 (   725 PWs)   bands (ev):

    -4.2609   2.2257   4.2140   4.2140   7.3048   8.9915  12.8500  12.8501

          k =-0.1429 0.7143-0.1429 (   730 PWs)   bands (ev):

    -3.3432   0.6980   3.2163   3.9508   7.5868   9.0880  13.1023  13.2295

          k = 0.7143-0.1429 0.7143 (   731 PWs)   bands (ev):

    -2.4036  -0.5084   2.2451   4.1235   7.8290  11.3577  12.7138  12.8506

          k = 0.5714 0.0000 0.5714 (   736 PWs)   bands (ev):

    -3.0679   0.2574   2.1666   4.6835   8.4535  11.8946  12.2308  13.1216

          k = 0.0000 0.8571 0.0000 (   745 PWs)   bands (ev):

    -2.5473  -0.3121   3.5729   3.5729   6.9363   7.4510  15.5430  15.5430

          k = 0.8571-0.0000 0.8571 (   736 PWs)   bands (ev):

    -1.5771  -1.2884   2.6549   3.6358   7.2387   8.5213  15.3190  15.8127

          k =-0.2857 0.5714 0.0000 (   735 PWs)   bands (ev):

    -3.9463   1.4705   3.2184   4.5718   8.9830  10.2407  10.5756  12.5975

          k = 0.5714-0.2857 0.8571 (   732 PWs)   bands (ev):

    -2.8830  -0.0930   2.6438   4.0208   9.4687   9.8994  11.9085  13.0519

          k = 0.7143-0.1429 1.0000 (   741 PWs)   bands (ev):

    -2.3362  -0.3969   2.7247   3.1409   8.6008   8.9657  12.6102  15.1720

          k = 0.5714 0.0000 0.8571 (   733 PWs)   bands (ev):

    -1.8868  -0.8026   2.0680   3.2357   9.1319  11.2462  12.1106  12.2354

     the Fermi energy is     6.8218 ev

!    total energy              =     -22.83938967 Ry
     estimated scf accuracy    <       0.00000015 Ry
     smearing contrib. (-TS)   =       0.00001028 Ry
     internal energy E=F+TS    =     -22.83939995 Ry

     The total energy is F=E-TS. E is the sum of the following terms:
     one-electron contribution =       5.29736307 Ry
     hartree contribution      =       1.08808217 Ry
     xc contribution           =     -12.33257398 Ry
     ewald contribution        =     -16.89227122 Ry

     convergence has been achieved in   4 iterations

     Writing output data file /home/jesus/Documentos/Nanociencia_DFT/test.save/
 
     init_run     :      0.27s CPU      0.74s WALL (       1 calls)
     electrons    :      0.90s CPU      0.99s WALL (       1 calls)

     Called by init_run:
     wfcinit      :      0.07s CPU      0.22s WALL (       1 calls)
     potinit      :      0.01s CPU      0.01s WALL (       1 calls)
     hinit0       :      0.17s CPU      0.45s WALL (       1 calls)

     Called by electrons:
     c_bands      :      0.75s CPU      0.77s WALL (       5 calls)
     sum_band     :      0.13s CPU      0.16s WALL (       5 calls)
     v_of_rho     :      0.01s CPU      0.02s WALL (       5 calls)
     newd         :      0.02s CPU      0.05s WALL (       5 calls)
     mix_rho      :      0.00s CPU      0.00s WALL (       5 calls)

     Called by c_bands:
     init_us_2    :      0.05s CPU      0.05s WALL (     220 calls)
     cegterg      :      0.54s CPU      0.55s WALL (     100 calls)

     Called by *egterg:
     cdiaghg      :      0.03s CPU      0.18s WALL (     382 calls)
     h_psi        :      0.46s CPU      0.47s WALL (     422 calls)
     s_psi        :      0.02s CPU      0.03s WALL (     422 calls)
     g_psi        :      0.00s CPU      0.00s WALL (     302 calls)

     Called by h_psi:
     h_psi:calbec :      0.03s CPU      0.03s WALL (     422 calls)
     vloc_psi     :      0.40s CPU      0.41s WALL (     422 calls)
     add_vuspsi   :      0.03s CPU      0.03s WALL (     422 calls)

     General routines
     calbec       :      0.04s CPU      0.04s WALL (     522 calls)
     fft          :      0.01s CPU      0.18s WALL (      56 calls)
     ffts         :      0.00s CPU      0.00s WALL (       5 calls)
     fftw         :      0.42s CPU      0.43s WALL (    5394 calls)
 
     Parallel routines
 
     PWSCF        :      1.82s CPU      2.87s WALL

 
   This run was terminated on:  19:26: 9  15Mar2021            

=------------------------------------------------------------------------------=
   JOB DONE.
=------------------------------------------------------------------------------=
