
     Program PWSCF v.6.6 starts on 15Mar2021 at 19:26:18 

     This program is part of the open-source Quantum ESPRESSO suite
     for quantum simulation of materials; please cite
         "P. Giannozzi et al., J. Phys.:Condens. Matter 21 395502 (2009);
         "P. Giannozzi et al., J. Phys.:Condens. Matter 29 465901 (2017);
          URL http://www.quantum-espresso.org", 
     in publications or presentations arising from this work. More details at
     http://www.quantum-espresso.org/quote

     Parallel version (MPI), running on     1 processors

     MPI processes distributed on     1 nodes
     Fft bands division:     nmany     =       1
     Waiting for input...
     Reading input from standard input
Warning: card &CELL ignored
Warning: card   CELL_DYNAMICS='BFGS', ignored
Warning: card   CELL_DOFREE='ALL', ignored
Warning: card / ignored

     Current dimensions of program PWSCF are:
     Max number of different atomic species (ntypx) = 10
     Max number of k-points (npk) =  40000
     Max angular momentum in pseudopotentials (lmaxx) =  3

     Subspace diagonalization in iterative solution of the eigenvalue problem:
     a serial algorithm will be used

 
     G-vector sticks info
     --------------------
     sticks:   dense  smooth     PW     G-vecs:    dense   smooth      PW
     Sum         649     433    139                10849     5961    1067
 


     bravais-lattice index     =            2
     lattice parameter (alat)  =      10.2045  a.u.
     unit-cell volume          =     265.6549 (a.u.)^3
     number of atoms/cell      =            2
     number of atomic types    =            1
     number of electrons       =         8.00
     number of Kohn-Sham states=            8
     kinetic-energy cutoff     =      30.0000  Ry
     charge density cutoff     =     180.0000  Ry
     convergence threshold     =      1.0E-06
     mixing beta               =       0.7000
     number of iterations used =            8  plain     mixing
     Exchange-correlation= PBE
                           (   1   4   3   4   0   0   0)

     celldm(1)=  10.204521  celldm(2)=   0.000000  celldm(3)=   0.000000
     celldm(4)=   0.000000  celldm(5)=   0.000000  celldm(6)=   0.000000

     crystal axes: (cart. coord. in units of alat)
               a(1) = (  -0.500000   0.000000   0.500000 )  
               a(2) = (   0.000000   0.500000   0.500000 )  
               a(3) = (  -0.500000   0.500000   0.000000 )  

     reciprocal axes: (cart. coord. in units 2 pi/alat)
               b(1) = ( -1.000000 -1.000000  1.000000 )  
               b(2) = (  1.000000  1.000000  1.000000 )  
               b(3) = ( -1.000000  1.000000 -1.000000 )  


     PseudoPot. # 1 for Si read from file:
     /home/jesus/Documentos/Nanociencia_DFT/pseudopotenciales/Si.pbe-n-rrkjus_psl.1.0.0.UPF
     MD5 check sum: fa25574f73a70a4139f2adfbefec430c
     Pseudo is Ultrasoft + core correction, Zval =  4.0
     Generated using "atomic" code by A. Dal Corso v.6.3
     Using radial grid of 1141 points,  6 beta functions with: 
                l(1) =   0
                l(2) =   0
                l(3) =   1
                l(4) =   1
                l(5) =   2
                l(6) =   2
     Q(r) pseudized with 0 coefficients 


     atomic species   valence    mass     pseudopotential
        Si             4.00    28.08550     Si( 1.00)

     48 Sym. Ops., with inversion, found (24 have fractional translation)



   Cartesian axes

     site n.     atom                  positions (alat units)
         1           Si  tau(   1) = (   0.0000000   0.0000000   0.0000000  )
         2           Si  tau(   2) = (  -0.2500000   0.2500000   0.2500000  )

     number of k points=    20  Methfessel-Paxton smearing, width (Ry)=  0.0100
                       cart. coord. in units 2pi/alat
        k(    1) = (   0.0000000   0.0000000   0.0000000), wk =   0.0058309
        k(    2) = (  -0.1428571   0.1428571  -0.1428571), wk =   0.0466472
        k(    3) = (  -0.2857143   0.2857143  -0.2857143), wk =   0.0466472
        k(    4) = (  -0.4285714   0.4285714  -0.4285714), wk =   0.0466472
        k(    5) = (   0.0000000   0.2857143   0.0000000), wk =   0.0349854
        k(    6) = (  -0.1428571   0.4285714  -0.1428571), wk =   0.1399417
        k(    7) = (  -0.2857143   0.5714286  -0.2857143), wk =   0.1399417
        k(    8) = (   0.5714286  -0.2857143   0.5714286), wk =   0.1399417
        k(    9) = (   0.4285714  -0.1428571   0.4285714), wk =   0.1399417
        k(   10) = (   0.2857143  -0.0000000   0.2857143), wk =   0.0699708
        k(   11) = (   0.0000000   0.5714286   0.0000000), wk =   0.0349854
        k(   12) = (  -0.1428571   0.7142857  -0.1428571), wk =   0.1399417
        k(   13) = (   0.7142857  -0.1428571   0.7142857), wk =   0.1399417
        k(   14) = (   0.5714286   0.0000000   0.5714286), wk =   0.0699708
        k(   15) = (   0.0000000   0.8571429   0.0000000), wk =   0.0349854
        k(   16) = (   0.8571429  -0.0000000   0.8571429), wk =   0.0699708
        k(   17) = (  -0.2857143   0.5714286   0.0000000), wk =   0.1399417
        k(   18) = (   0.5714286  -0.2857143   0.8571429), wk =   0.2798834
        k(   19) = (   0.7142857  -0.1428571   1.0000000), wk =   0.1399417
        k(   20) = (   0.5714286   0.0000000   0.8571429), wk =   0.1399417

     Dense  grid:    10849 G-vectors     FFT dimensions: (  32,  32,  32)

     Smooth grid:     5961 G-vectors     FFT dimensions: (  32,  32,  32)

     Estimated max dynamical RAM per process >      41.22 MB

     Initial potential from superposition of free atoms

     starting charge    7.99888, renormalised to    8.00000
     Starting wfcs are    8 randomized atomic wfcs

     total cpu time spent up to now is        1.1 secs

     Self-consistent Calculation

     iteration #  1     ecut=    30.00 Ry     beta= 0.70
     Davidson diagonalization with overlap
     ethr =  1.00E-02,  avg # of iterations =  4.2

     Threshold (ethr) on eigenvalues was too large:
     Diagonalizing with lowered threshold

     Davidson diagonalization with overlap
     ethr =  6.70E-04,  avg # of iterations =  1.4

     total cpu time spent up to now is        1.9 secs

     total energy              =     -22.83538888 Ry
     estimated scf accuracy    <       0.05750713 Ry

     iteration #  2     ecut=    30.00 Ry     beta= 0.70
     Davidson diagonalization with overlap
     ethr =  7.19E-04,  avg # of iterations =  1.1

     total cpu time spent up to now is        2.2 secs

     total energy              =     -22.83787136 Ry
     estimated scf accuracy    <       0.00221084 Ry

     iteration #  3     ecut=    30.00 Ry     beta= 0.70
     Davidson diagonalization with overlap
     ethr =  2.76E-05,  avg # of iterations =  5.0

     total cpu time spent up to now is        2.6 secs

     total energy              =     -22.83800569 Ry
     estimated scf accuracy    <       0.00005008 Ry

     iteration #  4     ecut=    30.00 Ry     beta= 0.70
     Davidson diagonalization with overlap
     ethr =  6.26E-07,  avg # of iterations =  3.5

     total cpu time spent up to now is        3.0 secs

     End of self-consistent calculation

          k = 0.0000 0.0000 0.0000 (   725 PWs)   bands (ev):

    -5.6950   6.3862   6.3862   6.3862   8.9542   8.9542   8.9542   9.9422

          k =-0.1429 0.1429-0.1429 (   739 PWs)   bands (ev):

    -5.4250   4.4432   6.0222   6.0222   8.8751   9.4848   9.4849  11.5615

          k =-0.2857 0.2857-0.2857 (   754 PWs)   bands (ev):

    -4.6461   1.7894   5.4993   5.4993   8.3478   9.9307   9.9307  13.9675

          k =-0.4286 0.4286-0.4286 (   739 PWs)   bands (ev):

    -3.5836  -0.2769   5.2077   5.2077   8.0240   9.7612   9.7613  14.2045

          k = 0.0000 0.2857 0.0000 (   737 PWs)   bands (ev):

    -5.3337   4.7697   5.3930   5.3930   8.2624  10.3880  10.3880  10.9301

          k =-0.1429 0.4286-0.1429 (   742 PWs)   bands (ev):

    -4.7173   2.6069   4.8126   4.8423   8.4632  10.3718  10.9421  11.1760

          k =-0.2857 0.5714-0.2857 (   741 PWs)   bands (ev):

    -3.6895   0.3827   4.1150   4.6525   8.5359  10.2577  10.9361  12.2094

          k = 0.5714-0.2857 0.5714 (   745 PWs)   bands (ev):

    -3.1158  -0.5020   3.6918   4.8558   8.6495  10.1513  10.5287  14.6325

          k = 0.4286-0.1429 0.4286 (   742 PWs)   bands (ev):

    -4.0654   1.0758   3.6896   5.3803   9.0775  10.2984  10.3425  13.1228

          k = 0.2857-0.0000 0.2857 (   749 PWs)   bands (ev):

    -4.9820   3.2366   4.3803   5.9846   9.5039   9.6955   9.9704  12.1044

          k = 0.0000 0.5714 0.0000 (   725 PWs)   bands (ev):

    -4.2668   2.2207   4.2090   4.2090   7.2961   8.9823  12.8446  12.8446

          k =-0.1429 0.7143-0.1429 (   730 PWs)   bands (ev):

    -3.3488   0.6928   3.2103   3.9458   7.5779   9.0794  13.0960  13.2237

          k = 0.7143-0.1429 0.7143 (   731 PWs)   bands (ev):

    -2.4089  -0.5139   2.2385   4.1185   7.8200  11.3495  12.7077  12.8439

          k = 0.5714 0.0000 0.5714 (   736 PWs)   bands (ev):

    -3.0734   0.2520   2.1598   4.6787   8.4452  11.8887  12.2228  13.1136

          k = 0.0000 0.8571 0.0000 (   745 PWs)   bands (ev):

    -2.5529  -0.3174   3.5678   3.5678   6.9269   7.4413  15.5371  15.5371

          k = 0.8571-0.0000 0.8571 (   736 PWs)   bands (ev):

    -1.5824  -1.2939   2.6487   3.6308   7.2293   8.5127  15.3127  15.8055

          k =-0.2857 0.5714 0.0000 (   735 PWs)   bands (ev):

    -3.9521   1.4653   3.2123   4.5666   8.9755  10.2321  10.5690  12.5915

          k = 0.5714-0.2857 0.8571 (   732 PWs)   bands (ev):

    -2.8885  -0.0987   2.6376   4.0153   9.4607   9.8919  11.9010  13.0457

          k = 0.7143-0.1429 1.0000 (   741 PWs)   bands (ev):

    -2.3417  -0.4021   2.7184   3.1349   8.5925   8.9570  12.6035  15.1650

          k = 0.5714 0.0000 0.8571 (   733 PWs)   bands (ev):

    -1.8920  -0.8079   2.0612   3.2297   9.1236  11.2378  12.1042  12.2282

     the Fermi energy is     6.8124 ev

!    total energy              =     -22.83801447 Ry
     estimated scf accuracy    <       0.00000015 Ry
     smearing contrib. (-TS)   =       0.00001029 Ry
     internal energy E=F+TS    =     -22.83802476 Ry

     The total energy is F=E-TS. E is the sum of the following terms:
     one-electron contribution =       5.29741341 Ry
     hartree contribution      =       1.08737857 Ry
     xc contribution           =     -12.33054551 Ry
     ewald contribution        =     -16.89227122 Ry

     convergence has been achieved in   4 iterations

     Writing output data file /home/jesus/Documentos/Nanociencia_DFT/test.save/
 
     init_run     :      0.41s CPU      0.45s WALL (       1 calls)
     electrons    :      1.91s CPU      1.93s WALL (       1 calls)

     Called by init_run:
     wfcinit      :      0.13s CPU      0.13s WALL (       1 calls)
     potinit      :      0.02s CPU      0.02s WALL (       1 calls)
     hinit0       :      0.23s CPU      0.25s WALL (       1 calls)

     Called by electrons:
     c_bands      :      1.42s CPU      1.43s WALL (       5 calls)
     sum_band     :      0.37s CPU      0.38s WALL (       5 calls)
     v_of_rho     :      0.06s CPU      0.06s WALL (       5 calls)
     newd         :      0.09s CPU      0.11s WALL (       5 calls)
     mix_rho      :      0.00s CPU      0.00s WALL (       5 calls)

     Called by c_bands:
     init_us_2    :      0.05s CPU      0.05s WALL (     220 calls)
     cegterg      :      1.19s CPU      1.21s WALL (     100 calls)

     Called by *egterg:
     cdiaghg      :      0.04s CPU      0.04s WALL (     382 calls)
     h_psi        :      1.17s CPU      1.18s WALL (     422 calls)
     s_psi        :      0.02s CPU      0.02s WALL (     422 calls)
     g_psi        :      0.00s CPU      0.00s WALL (     302 calls)

     Called by h_psi:
     h_psi:calbec :      0.03s CPU      0.03s WALL (     422 calls)
     vloc_psi     :      1.10s CPU      1.11s WALL (     422 calls)
     add_vuspsi   :      0.03s CPU      0.03s WALL (     422 calls)

     General routines
     calbec       :      0.04s CPU      0.04s WALL (     522 calls)
     fft          :      0.01s CPU      0.03s WALL (      64 calls)
     ffts         :      0.00s CPU      0.00s WALL (      10 calls)
     fftw         :      1.10s CPU      1.11s WALL (    5392 calls)
     interpolate  :      0.00s CPU      0.00s WALL (       5 calls)
 
     Parallel routines
 
     PWSCF        :      2.95s CPU      3.05s WALL

 
   This run was terminated on:  19:26:22  15Mar2021            

=------------------------------------------------------------------------------=
   JOB DONE.
=------------------------------------------------------------------------------=
