
     Program PWSCF v.6.6 starts on 15Mar2021 at 19:26:33 

     This program is part of the open-source Quantum ESPRESSO suite
     for quantum simulation of materials; please cite
         "P. Giannozzi et al., J. Phys.:Condens. Matter 21 395502 (2009);
         "P. Giannozzi et al., J. Phys.:Condens. Matter 29 465901 (2017);
          URL http://www.quantum-espresso.org", 
     in publications or presentations arising from this work. More details at
     http://www.quantum-espresso.org/quote

     Parallel version (MPI), running on     1 processors

     MPI processes distributed on     1 nodes
     Fft bands division:     nmany     =       1
     Waiting for input...
     Reading input from standard input
Warning: card &CELL ignored
Warning: card   CELL_DYNAMICS='BFGS', ignored
Warning: card   CELL_DOFREE='ALL', ignored
Warning: card / ignored

     Current dimensions of program PWSCF are:
     Max number of different atomic species (ntypx) = 10
     Max number of k-points (npk) =  40000
     Max angular momentum in pseudopotentials (lmaxx) =  3

     Subspace diagonalization in iterative solution of the eigenvalue problem:
     a serial algorithm will be used

 
     G-vector sticks info
     --------------------
     sticks:   dense  smooth     PW     G-vecs:    dense   smooth      PW
     Sum        1069     433    139                23289     5961    1067
 


     bravais-lattice index     =            2
     lattice parameter (alat)  =      10.2045  a.u.
     unit-cell volume          =     265.6549 (a.u.)^3
     number of atoms/cell      =            2
     number of atomic types    =            1
     number of electrons       =         8.00
     number of Kohn-Sham states=            8
     kinetic-energy cutoff     =      30.0000  Ry
     charge density cutoff     =     300.0000  Ry
     convergence threshold     =      1.0E-06
     mixing beta               =       0.7000
     number of iterations used =            8  plain     mixing
     Exchange-correlation= PBE
                           (   1   4   3   4   0   0   0)

     celldm(1)=  10.204521  celldm(2)=   0.000000  celldm(3)=   0.000000
     celldm(4)=   0.000000  celldm(5)=   0.000000  celldm(6)=   0.000000

     crystal axes: (cart. coord. in units of alat)
               a(1) = (  -0.500000   0.000000   0.500000 )  
               a(2) = (   0.000000   0.500000   0.500000 )  
               a(3) = (  -0.500000   0.500000   0.000000 )  

     reciprocal axes: (cart. coord. in units 2 pi/alat)
               b(1) = ( -1.000000 -1.000000  1.000000 )  
               b(2) = (  1.000000  1.000000  1.000000 )  
               b(3) = ( -1.000000  1.000000 -1.000000 )  


     PseudoPot. # 1 for Si read from file:
     /home/jesus/Documentos/Nanociencia_DFT/pseudopotenciales/Si.pbe-n-rrkjus_psl.1.0.0.UPF
     MD5 check sum: fa25574f73a70a4139f2adfbefec430c
     Pseudo is Ultrasoft + core correction, Zval =  4.0
     Generated using "atomic" code by A. Dal Corso v.6.3
     Using radial grid of 1141 points,  6 beta functions with: 
                l(1) =   0
                l(2) =   0
                l(3) =   1
                l(4) =   1
                l(5) =   2
                l(6) =   2
     Q(r) pseudized with 0 coefficients 


     atomic species   valence    mass     pseudopotential
        Si             4.00    28.08550     Si( 1.00)

     48 Sym. Ops., with inversion, found (24 have fractional translation)



   Cartesian axes

     site n.     atom                  positions (alat units)
         1           Si  tau(   1) = (   0.0000000   0.0000000   0.0000000  )
         2           Si  tau(   2) = (  -0.2500000   0.2500000   0.2500000  )

     number of k points=    20  Methfessel-Paxton smearing, width (Ry)=  0.0100
                       cart. coord. in units 2pi/alat
        k(    1) = (   0.0000000   0.0000000   0.0000000), wk =   0.0058309
        k(    2) = (  -0.1428571   0.1428571  -0.1428571), wk =   0.0466472
        k(    3) = (  -0.2857143   0.2857143  -0.2857143), wk =   0.0466472
        k(    4) = (  -0.4285714   0.4285714  -0.4285714), wk =   0.0466472
        k(    5) = (   0.0000000   0.2857143   0.0000000), wk =   0.0349854
        k(    6) = (  -0.1428571   0.4285714  -0.1428571), wk =   0.1399417
        k(    7) = (  -0.2857143   0.5714286  -0.2857143), wk =   0.1399417
        k(    8) = (   0.5714286  -0.2857143   0.5714286), wk =   0.1399417
        k(    9) = (   0.4285714  -0.1428571   0.4285714), wk =   0.1399417
        k(   10) = (   0.2857143  -0.0000000   0.2857143), wk =   0.0699708
        k(   11) = (   0.0000000   0.5714286   0.0000000), wk =   0.0349854
        k(   12) = (  -0.1428571   0.7142857  -0.1428571), wk =   0.1399417
        k(   13) = (   0.7142857  -0.1428571   0.7142857), wk =   0.1399417
        k(   14) = (   0.5714286   0.0000000   0.5714286), wk =   0.0699708
        k(   15) = (   0.0000000   0.8571429   0.0000000), wk =   0.0349854
        k(   16) = (   0.8571429  -0.0000000   0.8571429), wk =   0.0699708
        k(   17) = (  -0.2857143   0.5714286   0.0000000), wk =   0.1399417
        k(   18) = (   0.5714286  -0.2857143   0.8571429), wk =   0.2798834
        k(   19) = (   0.7142857  -0.1428571   1.0000000), wk =   0.1399417
        k(   20) = (   0.5714286   0.0000000   0.8571429), wk =   0.1399417

     Dense  grid:    23289 G-vectors     FFT dimensions: (  40,  40,  40)

     Smooth grid:     5961 G-vectors     FFT dimensions: (  32,  32,  32)

     Estimated max dynamical RAM per process >      84.44 MB

     Initial potential from superposition of free atoms

     starting charge    7.99888, renormalised to    8.00000
     Starting wfcs are    8 randomized atomic wfcs

     total cpu time spent up to now is        1.2 secs

     Self-consistent Calculation

     iteration #  1     ecut=    30.00 Ry     beta= 0.70
     Davidson diagonalization with overlap
     ethr =  1.00E-02,  avg # of iterations =  4.2

     Threshold (ethr) on eigenvalues was too large:
     Diagonalizing with lowered threshold

     Davidson diagonalization with overlap
     ethr =  6.70E-04,  avg # of iterations =  1.4

     total cpu time spent up to now is        2.2 secs

     total energy              =     -22.83539329 Ry
     estimated scf accuracy    <       0.05751106 Ry

     iteration #  2     ecut=    30.00 Ry     beta= 0.70
     Davidson diagonalization with overlap
     ethr =  7.19E-04,  avg # of iterations =  1.1

     total cpu time spent up to now is        2.6 secs

     total energy              =     -22.83787564 Ry
     estimated scf accuracy    <       0.00221129 Ry

     iteration #  3     ecut=    30.00 Ry     beta= 0.70
     Davidson diagonalization with overlap
     ethr =  2.76E-05,  avg # of iterations =  5.0

     total cpu time spent up to now is        3.2 secs

     total energy              =     -22.83800997 Ry
     estimated scf accuracy    <       0.00005009 Ry

     iteration #  4     ecut=    30.00 Ry     beta= 0.70
     Davidson diagonalization with overlap
     ethr =  6.26E-07,  avg # of iterations =  3.5

     total cpu time spent up to now is        3.7 secs

     End of self-consistent calculation

          k = 0.0000 0.0000 0.0000 (   725 PWs)   bands (ev):

    -5.6952   6.3859   6.3859   6.3859   8.9541   8.9541   8.9541   9.9419

          k =-0.1429 0.1429-0.1429 (   739 PWs)   bands (ev):

    -5.4252   4.4431   6.0220   6.0220   8.8750   9.4847   9.4848  11.5613

          k =-0.2857 0.2857-0.2857 (   754 PWs)   bands (ev):

    -4.6463   1.7893   5.4991   5.4991   8.3477   9.9306   9.9306  13.9674

          k =-0.4286 0.4286-0.4286 (   739 PWs)   bands (ev):

    -3.5838  -0.2771   5.2076   5.2076   8.0239   9.7612   9.7612  14.2044

          k = 0.0000 0.2857 0.0000 (   737 PWs)   bands (ev):

    -5.3339   4.7695   5.3928   5.3928   8.2623  10.3879  10.3879  10.9300

          k =-0.1429 0.4286-0.1429 (   742 PWs)   bands (ev):

    -4.7175   2.6067   4.8124   4.8421   8.4631  10.3717  10.9420  11.1759

          k =-0.2857 0.5714-0.2857 (   741 PWs)   bands (ev):

    -3.6897   0.3826   4.1148   4.6523   8.5358  10.2576  10.9360  12.2093

          k = 0.5714-0.2857 0.5714 (   745 PWs)   bands (ev):

    -3.1159  -0.5022   3.6916   4.8556   8.6494  10.1512  10.5286  14.6324

          k = 0.4286-0.1429 0.4286 (   742 PWs)   bands (ev):

    -4.0656   1.0756   3.6894   5.3801   9.0774  10.2983  10.3424  13.1226

          k = 0.2857-0.0000 0.2857 (   749 PWs)   bands (ev):

    -4.9822   3.2364   4.3801   5.9844   9.5037   9.6954   9.9702  12.1042

          k = 0.0000 0.5714 0.0000 (   725 PWs)   bands (ev):

    -4.2669   2.2205   4.2088   4.2088   7.2960   8.9822  12.8445  12.8445

          k =-0.1429 0.7143-0.1429 (   730 PWs)   bands (ev):

    -3.3490   0.6926   3.2102   3.9456   7.5778   9.0793  13.0959  13.2236

          k = 0.7143-0.1429 0.7143 (   731 PWs)   bands (ev):

    -2.4091  -0.5141   2.2384   4.1183   7.8199  11.3493  12.7076  12.8437

          k = 0.5714 0.0000 0.5714 (   736 PWs)   bands (ev):

    -3.0736   0.2518   2.1597   4.6785   8.4451  11.8887  12.2226  13.1135

          k = 0.0000 0.8571 0.0000 (   745 PWs)   bands (ev):

    -2.5531  -0.3176   3.5677   3.5677   6.9268   7.4413  15.5369  15.5369

          k = 0.8571-0.0000 0.8571 (   736 PWs)   bands (ev):

    -1.5826  -1.2940   2.6486   3.6306   7.2292   8.5126  15.3126  15.8054

          k =-0.2857 0.5714 0.0000 (   735 PWs)   bands (ev):

    -3.9523   1.4651   3.2122   4.5665   8.9754  10.2320  10.5689  12.5914

          k = 0.5714-0.2857 0.8571 (   732 PWs)   bands (ev):

    -2.8887  -0.0988   2.6374   4.0151   9.4606   9.8918  11.9009  13.0456

          k = 0.7143-0.1429 1.0000 (   741 PWs)   bands (ev):

    -2.3419  -0.4023   2.7183   3.1348   8.5924   8.9569  12.6034  15.1649

          k = 0.5714 0.0000 0.8571 (   733 PWs)   bands (ev):

    -1.8922  -0.8081   2.0611   3.2295   9.1235  11.2377  12.1041  12.2281

     the Fermi energy is     6.8124 ev

!    total energy              =     -22.83801875 Ry
     estimated scf accuracy    <       0.00000015 Ry
     smearing contrib. (-TS)   =       0.00001029 Ry
     internal energy E=F+TS    =     -22.83802903 Ry

     The total energy is F=E-TS. E is the sum of the following terms:
     one-electron contribution =       5.29740347 Ry
     hartree contribution      =       1.08741813 Ry
     xc contribution           =     -12.33057944 Ry
     ewald contribution        =     -16.89227120 Ry

     convergence has been achieved in   4 iterations

     Writing output data file /home/jesus/Documentos/Nanociencia_DFT/test.save/
 
     init_run     :      0.47s CPU      0.56s WALL (       1 calls)
     electrons    :      2.23s CPU      2.48s WALL (       1 calls)

     Called by init_run:
     wfcinit      :      0.12s CPU      0.12s WALL (       1 calls)
     potinit      :      0.04s CPU      0.05s WALL (       1 calls)
     hinit0       :      0.25s CPU      0.27s WALL (       1 calls)

     Called by electrons:
     c_bands      :      1.43s CPU      1.45s WALL (       5 calls)
     sum_band     :      0.50s CPU      0.62s WALL (       5 calls)
     v_of_rho     :      0.14s CPU      0.14s WALL (       5 calls)
     newd         :      0.24s CPU      0.38s WALL (       5 calls)
     mix_rho      :      0.01s CPU      0.01s WALL (       5 calls)

     Called by c_bands:
     init_us_2    :      0.05s CPU      0.05s WALL (     220 calls)
     cegterg      :      1.20s CPU      1.22s WALL (     100 calls)

     Called by *egterg:
     cdiaghg      :      0.04s CPU      0.04s WALL (     382 calls)
     h_psi        :      1.16s CPU      1.17s WALL (     422 calls)
     s_psi        :      0.03s CPU      0.03s WALL (     422 calls)
     g_psi        :      0.00s CPU      0.00s WALL (     302 calls)

     Called by h_psi:
     h_psi:calbec :      0.04s CPU      0.04s WALL (     422 calls)
     vloc_psi     :      1.09s CPU      1.10s WALL (     422 calls)
     add_vuspsi   :      0.03s CPU      0.03s WALL (     422 calls)

     General routines
     calbec       :      0.04s CPU      0.04s WALL (     522 calls)
     fft          :      0.04s CPU      0.06s WALL (      64 calls)
     ffts         :      0.00s CPU      0.00s WALL (      10 calls)
     fftw         :      1.05s CPU      1.07s WALL (    5392 calls)
     interpolate  :      0.00s CPU      0.01s WALL (       5 calls)
 
     Parallel routines
 
     PWSCF        :      3.36s CPU      3.70s WALL

 
   This run was terminated on:  19:26:37  15Mar2021            

=------------------------------------------------------------------------------=
   JOB DONE.
=------------------------------------------------------------------------------=
