
     Program PWSCF v.6.6 starts on 15Mar2021 at 19:26:15 

     This program is part of the open-source Quantum ESPRESSO suite
     for quantum simulation of materials; please cite
         "P. Giannozzi et al., J. Phys.:Condens. Matter 21 395502 (2009);
         "P. Giannozzi et al., J. Phys.:Condens. Matter 29 465901 (2017);
          URL http://www.quantum-espresso.org", 
     in publications or presentations arising from this work. More details at
     http://www.quantum-espresso.org/quote

     Parallel version (MPI), running on     1 processors

     MPI processes distributed on     1 nodes
     Fft bands division:     nmany     =       1
     Waiting for input...
     Reading input from standard input
Warning: card &CELL ignored
Warning: card   CELL_DYNAMICS='BFGS', ignored
Warning: card   CELL_DOFREE='ALL', ignored
Warning: card / ignored

     Current dimensions of program PWSCF are:
     Max number of different atomic species (ntypx) = 10
     Max number of k-points (npk) =  40000
     Max angular momentum in pseudopotentials (lmaxx) =  3

     Subspace diagonalization in iterative solution of the eigenvalue problem:
     a serial algorithm will be used

 
     G-vector sticks info
     --------------------
     sticks:   dense  smooth     PW     G-vecs:    dense   smooth      PW
     Sum         547     433    139                 8291     5961    1067
 


     bravais-lattice index     =            2
     lattice parameter (alat)  =      10.2045  a.u.
     unit-cell volume          =     265.6549 (a.u.)^3
     number of atoms/cell      =            2
     number of atomic types    =            1
     number of electrons       =         8.00
     number of Kohn-Sham states=            8
     kinetic-energy cutoff     =      30.0000  Ry
     charge density cutoff     =     150.0000  Ry
     convergence threshold     =      1.0E-06
     mixing beta               =       0.7000
     number of iterations used =            8  plain     mixing
     Exchange-correlation= PBE
                           (   1   4   3   4   0   0   0)

     celldm(1)=  10.204521  celldm(2)=   0.000000  celldm(3)=   0.000000
     celldm(4)=   0.000000  celldm(5)=   0.000000  celldm(6)=   0.000000

     crystal axes: (cart. coord. in units of alat)
               a(1) = (  -0.500000   0.000000   0.500000 )  
               a(2) = (   0.000000   0.500000   0.500000 )  
               a(3) = (  -0.500000   0.500000   0.000000 )  

     reciprocal axes: (cart. coord. in units 2 pi/alat)
               b(1) = ( -1.000000 -1.000000  1.000000 )  
               b(2) = (  1.000000  1.000000  1.000000 )  
               b(3) = ( -1.000000  1.000000 -1.000000 )  


     PseudoPot. # 1 for Si read from file:
     /home/jesus/Documentos/Nanociencia_DFT/pseudopotenciales/Si.pbe-n-rrkjus_psl.1.0.0.UPF
     MD5 check sum: fa25574f73a70a4139f2adfbefec430c
     Pseudo is Ultrasoft + core correction, Zval =  4.0
     Generated using "atomic" code by A. Dal Corso v.6.3
     Using radial grid of 1141 points,  6 beta functions with: 
                l(1) =   0
                l(2) =   0
                l(3) =   1
                l(4) =   1
                l(5) =   2
                l(6) =   2
     Q(r) pseudized with 0 coefficients 


     atomic species   valence    mass     pseudopotential
        Si             4.00    28.08550     Si( 1.00)

     48 Sym. Ops., with inversion, found (24 have fractional translation)



   Cartesian axes

     site n.     atom                  positions (alat units)
         1           Si  tau(   1) = (   0.0000000   0.0000000   0.0000000  )
         2           Si  tau(   2) = (  -0.2500000   0.2500000   0.2500000  )

     number of k points=    20  Methfessel-Paxton smearing, width (Ry)=  0.0100
                       cart. coord. in units 2pi/alat
        k(    1) = (   0.0000000   0.0000000   0.0000000), wk =   0.0058309
        k(    2) = (  -0.1428571   0.1428571  -0.1428571), wk =   0.0466472
        k(    3) = (  -0.2857143   0.2857143  -0.2857143), wk =   0.0466472
        k(    4) = (  -0.4285714   0.4285714  -0.4285714), wk =   0.0466472
        k(    5) = (   0.0000000   0.2857143   0.0000000), wk =   0.0349854
        k(    6) = (  -0.1428571   0.4285714  -0.1428571), wk =   0.1399417
        k(    7) = (  -0.2857143   0.5714286  -0.2857143), wk =   0.1399417
        k(    8) = (   0.5714286  -0.2857143   0.5714286), wk =   0.1399417
        k(    9) = (   0.4285714  -0.1428571   0.4285714), wk =   0.1399417
        k(   10) = (   0.2857143  -0.0000000   0.2857143), wk =   0.0699708
        k(   11) = (   0.0000000   0.5714286   0.0000000), wk =   0.0349854
        k(   12) = (  -0.1428571   0.7142857  -0.1428571), wk =   0.1399417
        k(   13) = (   0.7142857  -0.1428571   0.7142857), wk =   0.1399417
        k(   14) = (   0.5714286   0.0000000   0.5714286), wk =   0.0699708
        k(   15) = (   0.0000000   0.8571429   0.0000000), wk =   0.0349854
        k(   16) = (   0.8571429  -0.0000000   0.8571429), wk =   0.0699708
        k(   17) = (  -0.2857143   0.5714286   0.0000000), wk =   0.1399417
        k(   18) = (   0.5714286  -0.2857143   0.8571429), wk =   0.2798834
        k(   19) = (   0.7142857  -0.1428571   1.0000000), wk =   0.1399417
        k(   20) = (   0.5714286   0.0000000   0.8571429), wk =   0.1399417

     Dense  grid:     8291 G-vectors     FFT dimensions: (  32,  32,  32)

     Smooth grid:     5961 G-vectors     FFT dimensions: (  32,  32,  32)

     Estimated max dynamical RAM per process >      32.74 MB

     Check: negative core charge=   -0.000003

     Initial potential from superposition of free atoms

     starting charge    7.99888, renormalised to    8.00000
     Starting wfcs are    8 randomized atomic wfcs

     total cpu time spent up to now is        1.0 secs

     Self-consistent Calculation

     iteration #  1     ecut=    30.00 Ry     beta= 0.70
     Davidson diagonalization with overlap
     ethr =  1.00E-02,  avg # of iterations =  4.2

     Threshold (ethr) on eigenvalues was too large:
     Diagonalizing with lowered threshold

     Davidson diagonalization with overlap
     ethr =  6.70E-04,  avg # of iterations =  1.4

     total cpu time spent up to now is        1.7 secs

     total energy              =     -22.83541900 Ry
     estimated scf accuracy    <       0.05750350 Ry

     iteration #  2     ecut=    30.00 Ry     beta= 0.70
     Davidson diagonalization with overlap
     ethr =  7.19E-04,  avg # of iterations =  1.1

     total cpu time spent up to now is        2.0 secs

     total energy              =     -22.83790102 Ry
     estimated scf accuracy    <       0.00221104 Ry

     iteration #  3     ecut=    30.00 Ry     beta= 0.70
     Davidson diagonalization with overlap
     ethr =  2.76E-05,  avg # of iterations =  5.0

     total cpu time spent up to now is        2.4 secs

     total energy              =     -22.83803532 Ry
     estimated scf accuracy    <       0.00005008 Ry

     iteration #  4     ecut=    30.00 Ry     beta= 0.70
     Davidson diagonalization with overlap
     ethr =  6.26E-07,  avg # of iterations =  3.5

     total cpu time spent up to now is        2.8 secs

     End of self-consistent calculation

          k = 0.0000 0.0000 0.0000 (   725 PWs)   bands (ev):

    -5.6948   6.3864   6.3864   6.3864   8.9543   8.9543   8.9544   9.9426

          k =-0.1429 0.1429-0.1429 (   739 PWs)   bands (ev):

    -5.4248   4.4435   6.0224   6.0224   8.8754   9.4850   9.4851  11.5619

          k =-0.2857 0.2857-0.2857 (   754 PWs)   bands (ev):

    -4.6459   1.7897   5.4995   5.4995   8.3482   9.9309   9.9309  13.9679

          k =-0.4286 0.4286-0.4286 (   739 PWs)   bands (ev):

    -3.5833  -0.2767   5.2080   5.2080   8.0244   9.7614   9.7615  14.2050

          k = 0.0000 0.2857 0.0000 (   737 PWs)   bands (ev):

    -5.3335   4.7700   5.3932   5.3932   8.2627  10.3882  10.3882  10.9305

          k =-0.1429 0.4286-0.1429 (   742 PWs)   bands (ev):

    -4.7170   2.6071   4.8128   4.8425   8.4635  10.3721  10.9424  11.1762

          k =-0.2857 0.5714-0.2857 (   741 PWs)   bands (ev):

    -3.6893   0.3830   4.1152   4.6527   8.5362  10.2580  10.9363  12.2097

          k = 0.5714-0.2857 0.5714 (   745 PWs)   bands (ev):

    -3.1155  -0.5018   3.6920   4.8560   8.6498  10.1516  10.5289  14.6328

          k = 0.4286-0.1429 0.4286 (   742 PWs)   bands (ev):

    -4.0651   1.0761   3.6898   5.3805   9.0778  10.2986  10.3428  13.1231

          k = 0.2857-0.0000 0.2857 (   749 PWs)   bands (ev):

    -4.9817   3.2368   4.3805   5.9849   9.5041   9.6957   9.9707  12.1047

          k = 0.0000 0.5714 0.0000 (   725 PWs)   bands (ev):

    -4.2665   2.2209   4.2092   4.2092   7.2964   8.9826  12.8448  12.8449

          k =-0.1429 0.7143-0.1429 (   730 PWs)   bands (ev):

    -3.3486   0.6930   3.2105   3.9460   7.5782   9.0796  13.0963  13.2239

          k = 0.7143-0.1429 0.7143 (   731 PWs)   bands (ev):

    -2.4086  -0.5137   2.2388   4.1187   7.8203  11.3498  12.7079  12.8442

          k = 0.5714 0.0000 0.5714 (   736 PWs)   bands (ev):

    -3.0731   0.2523   2.1601   4.6789   8.4454  11.8889  12.2231  13.1139

          k = 0.0000 0.8571 0.0000 (   745 PWs)   bands (ev):

    -2.5526  -0.3172   3.5680   3.5680   6.9272   7.4416  15.5373  15.5373

          k = 0.8571-0.0000 0.8571 (   736 PWs)   bands (ev):

    -1.5821  -1.2936   2.6489   3.6310   7.2296   8.5130  15.3130  15.8058

          k =-0.2857 0.5714 0.0000 (   735 PWs)   bands (ev):

    -3.9519   1.4656   3.2125   4.5668   8.9758  10.2324  10.5693  12.5918

          k = 0.5714-0.2857 0.8571 (   732 PWs)   bands (ev):

    -2.8883  -0.0984   2.6378   4.0155   9.4610   9.8921  11.9013  13.0460

          k = 0.7143-0.1429 1.0000 (   741 PWs)   bands (ev):

    -2.3414  -0.4019   2.7187   3.1351   8.5928   8.9573  12.6037  15.1653

          k = 0.5714 0.0000 0.8571 (   733 PWs)   bands (ev):

    -1.8917  -0.8076   2.0615   3.2299   9.1239  11.2381  12.1045  12.2285

     the Fermi energy is     6.8127 ev

!    total energy              =     -22.83804410 Ry
     estimated scf accuracy    <       0.00000015 Ry
     smearing contrib. (-TS)   =       0.00001029 Ry
     internal energy E=F+TS    =     -22.83805439 Ry

     The total energy is F=E-TS. E is the sum of the following terms:
     one-electron contribution =       5.29741950 Ry
     hartree contribution      =       1.08736699 Ry
     xc contribution           =     -12.33056965 Ry
     ewald contribution        =     -16.89227123 Ry

     convergence has been achieved in   4 iterations

     Writing output data file /home/jesus/Documentos/Nanociencia_DFT/test.save/
 
     init_run     :      0.32s CPU      0.35s WALL (       1 calls)
     electrons    :      1.80s CPU      1.85s WALL (       1 calls)

     Called by init_run:
     wfcinit      :      0.09s CPU      0.09s WALL (       1 calls)
     potinit      :      0.02s CPU      0.02s WALL (       1 calls)
     hinit0       :      0.18s CPU      0.20s WALL (       1 calls)

     Called by electrons:
     c_bands      :      1.36s CPU      1.38s WALL (       5 calls)
     sum_band     :      0.33s CPU      0.35s WALL (       5 calls)
     v_of_rho     :      0.06s CPU      0.06s WALL (       5 calls)
     newd         :      0.08s CPU      0.08s WALL (       5 calls)
     mix_rho      :      0.00s CPU      0.00s WALL (       5 calls)

     Called by c_bands:
     init_us_2    :      0.05s CPU      0.05s WALL (     220 calls)
     cegterg      :      1.14s CPU      1.16s WALL (     100 calls)

     Called by *egterg:
     cdiaghg      :      0.04s CPU      0.04s WALL (     382 calls)
     h_psi        :      1.09s CPU      1.10s WALL (     422 calls)
     s_psi        :      0.02s CPU      0.02s WALL (     422 calls)
     g_psi        :      0.00s CPU      0.00s WALL (     302 calls)

     Called by h_psi:
     h_psi:calbec :      0.03s CPU      0.03s WALL (     422 calls)
     vloc_psi     :      1.02s CPU      1.03s WALL (     422 calls)
     add_vuspsi   :      0.03s CPU      0.03s WALL (     422 calls)

     General routines
     calbec       :      0.04s CPU      0.04s WALL (     522 calls)
     fft          :      0.01s CPU      0.03s WALL (      64 calls)
     ffts         :      0.00s CPU      0.00s WALL (      10 calls)
     fftw         :      1.02s CPU      1.04s WALL (    5392 calls)
     interpolate  :      0.00s CPU      0.00s WALL (       5 calls)
 
     Parallel routines
 
     PWSCF        :      2.75s CPU      2.84s WALL

 
   This run was terminated on:  19:26:18  15Mar2021            

=------------------------------------------------------------------------------=
   JOB DONE.
=------------------------------------------------------------------------------=
